 Entering Gaussian System, Link 0=g16
 Input=gauss.gjf
 Output=gauss.log
 Initial command:
 /software/Applications/gaussian/G16.A03.AVX/g16/l1.exe "/home/lbl8/code/hartree-fock_geomopt-rev-3/example/Gau-3231669.inp" -scrdir="/home/lbl8/code/hartree-fock_geomopt-rev-3/example/"
 Entering Link 1 = /software/Applications/gaussian/G16.A03.AVX/g16/l1.exe PID=   3231671.
  
 Copyright (c) 1988,1990,1992,1993,1995,1998,2003,2009,2016,
            Gaussian, Inc.  All Rights Reserved.
  
 This is part of the Gaussian(R) 16 program.  It is based on
 the Gaussian(R) 09 system (copyright 2009, Gaussian, Inc.),
 the Gaussian(R) 03 system (copyright 2003, Gaussian, Inc.),
 the Gaussian(R) 98 system (copyright 1998, Gaussian, Inc.),
 the Gaussian(R) 94 system (copyright 1995, Gaussian, Inc.),
 the Gaussian 92(TM) system (copyright 1992, Gaussian, Inc.),
 the Gaussian 90(TM) system (copyright 1990, Gaussian, Inc.),
 the Gaussian 88(TM) system (copyright 1988, Gaussian, Inc.),
 the Gaussian 86(TM) system (copyright 1986, Carnegie Mellon
 University), and the Gaussian 82(TM) system (copyright 1983,
 Carnegie Mellon University). Gaussian is a federally registered
 trademark of Gaussian, Inc.
  
 This software contains proprietary and confidential information,
 including trade secrets, belonging to Gaussian, Inc.
  
 This software is provided under written license and may be
 used, copied, transmitted, or stored only in accord with that
 written license.
  
 The following legend is applicable only to US Government
 contracts under FAR:
  
                    RESTRICTED RIGHTS LEGEND
  
 Use, reproduction and disclosure by the US Government is
 subject to restrictions as set forth in subparagraphs (a)
 and (c) of the Commercial Computer Software - Restricted
 Rights clause in FAR 52.227-19.
  
 Gaussian, Inc.
 340 Quinnipiac St., Bldg. 40, Wallingford CT 06492
  
  
 ---------------------------------------------------------------
 Warning -- This program may not be used in any manner that
 competes with the business of Gaussian, Inc. or will provide
 assistance to any competitor of Gaussian, Inc.  The licensee
 of this program is prohibited from giving any competitor of
 Gaussian, Inc. access to this program.  By using this program,
 the user acknowledges that Gaussian, Inc. is engaged in the
 business of creating and licensing software in the field of
 computational chemistry and represents and warrants to the
 licensee that it is not a competitor of Gaussian, Inc. and that
 it will not use this program in any manner prohibited above.
 ---------------------------------------------------------------
  

 Cite this work as:
 Gaussian 16, Revision A.03,
 M. J. Frisch, G. W. Trucks, H. B. Schlegel, G. E. Scuseria, 
 M. A. Robb, J. R. Cheeseman, G. Scalmani, V. Barone, 
 G. A. Petersson, H. Nakatsuji, X. Li, M. Caricato, A. V. Marenich, 
 J. Bloino, B. G. Janesko, R. Gomperts, B. Mennucci, H. P. Hratchian, 
 J. V. Ortiz, A. F. Izmaylov, J. L. Sonnenberg, D. Williams-Young, 
 F. Ding, F. Lipparini, F. Egidi, J. Goings, B. Peng, A. Petrone, 
 T. Henderson, D. Ranasinghe, V. G. Zakrzewski, J. Gao, N. Rega, 
 G. Zheng, W. Liang, M. Hada, M. Ehara, K. Toyota, R. Fukuda, 
 J. Hasegawa, M. Ishida, T. Nakajima, Y. Honda, O. Kitao, H. Nakai, 
 T. Vreven, K. Throssell, J. A. Montgomery, Jr., J. E. Peralta, 
 F. Ogliaro, M. J. Bearpark, J. J. Heyd, E. N. Brothers, K. N. Kudin, 
 V. N. Staroverov, T. A. Keith, R. Kobayashi, J. Normand, 
 K. Raghavachari, A. P. Rendell, J. C. Burant, S. S. Iyengar, 
 J. Tomasi, M. Cossi, J. M. Millam, M. Klene, C. Adamo, R. Cammi, 
 J. W. Ochterski, R. L. Martin, K. Morokuma, O. Farkas, 
 J. B. Foresman, and D. J. Fox, Gaussian, Inc., Wallingford CT, 2016.
 
 ******************************************
 Gaussian 16:  ES64L-G16RevA.03 25-Dec-2016
                15-Sep-2025 
 ******************************************
 %chk=gauss.chk
 -------------------
 # hf/6-31G(d) force
 -------------------
 1/10=7,30=1,38=1/1,3;
 2/12=2,17=6,18=5,40=1/2;
 3/5=1,6=6,7=1,11=9,25=1,30=1,71=1/1,2,3;
 4//1;
 5/5=2,38=5/2;
 6/7=2,8=2,9=2,10=2,28=1/1;
 7/29=1/1,2,3,16;
 1/10=7,30=1/3;
 99//99;
 -----------------
 Force calculation
 -----------------
 Symbolic Z-matrix:
 Charge =  0 Multiplicity = 1
 C                    -2.67744   0.49581  -0.05125 
 C                    -2.04323   1.22705   1.13606 
 C                    -0.88999   0.50015   1.83409 
 F                     0.1251    0.35399   1.01359 
 F                    -3.57755   1.2757   -0.59878 
 F                    -3.2565   -0.61063   0.34787 
 F                    -1.5837    2.39167   0.69727 
 F                    -2.99325   1.44139   2.03774 
 F                    -0.50405   1.21165   2.86765 
 F                    -1.27715  -0.68579   2.25113 
 F                    -1.76682   0.20149  -0.9505 
 

 GradGradGradGradGradGradGradGradGradGradGradGradGradGradGradGradGradGrad
 Berny optimization.
 Initialization pass.
 Trust Radius=3.00D-01 FncErr=1.00D-07 GrdErr=1.00D-07 EigMax=2.50D+02 EigMin=1.00D-04
 Number of steps in this run=      2 maximum allowed number of steps=      2.
 GradGradGradGradGradGradGradGradGradGradGradGradGradGradGradGradGradGrad

                          Input orientation:                          
 ---------------------------------------------------------------------
 Center     Atomic      Atomic             Coordinates (Angstroms)
 Number     Number       Type             X           Y           Z
 ---------------------------------------------------------------------
      1          6           0       -2.677444    0.495811   -0.051247
      2          6           0       -2.043229    1.227053    1.136062
      3          6           0       -0.889989    0.500149    1.834089
      4          9           0        0.125104    0.353994    1.013595
      5          9           0       -3.577551    1.275705   -0.598776
      6          9           0       -3.256502   -0.610631    0.347867
      7          9           0       -1.583699    2.391669    0.697266
      8          9           0       -2.993252    1.441386    2.037740
      9          9           0       -0.504047    1.211646    2.867655
     10          9           0       -1.277148   -0.685790    2.251125
     11          9           0       -1.766823    0.201486   -0.950497
 ---------------------------------------------------------------------
                    Distance matrix (angstroms):
                    1          2          3          4          5
     1  C    0.000000
     2  C    1.531876   0.000000
     3  C    2.597981   1.531533   0.000000
     4  F    3.001378   2.340705   1.313387   0.000000
     5  F    1.310807   2.316500   3.707197   4.142336   0.000000
     6  F    1.311036   2.338881   3.007170   3.578960   2.134823
     7  F    2.313185   1.326666   2.313320   2.678095   2.626889
     8  F    2.314673   1.327217   2.313248   3.457663   2.705563
     9  F    3.708916   2.316837   1.312798   2.137507   4.633214
    10  F    2.942436   2.342907   1.315394   2.139846   4.154667
    11  F    1.313205   2.341348   2.934613   2.731355   2.134570
                    6          7          8          9         10
     6  F    0.000000
     7  F    3.454585   0.000000
     8  F    2.671281   2.164890   0.000000
     9  F    4.152834   2.696051   2.633947   0.000000
    10  F    2.746977   3.461099   2.741427   2.139639   0.000000
    11  F    2.136452   2.746918   3.459918   4.146481   3.358188
                   11
    11  F    0.000000
 Stoichiometry    C3F8
 Framework group  C1[X(C3F8)]
 Deg. of freedom    27
 Full point group                 C1      NOp   1
 Largest Abelian subgroup         C1      NOp   1
 Largest concise Abelian subgroup C1      NOp   1
                         Standard orientation:                         
 ---------------------------------------------------------------------
 Center     Atomic      Atomic             Coordinates (Angstroms)
 Number     Number       Type             X           Y           Z
 ---------------------------------------------------------------------
      1          6           0       -1.299309   -0.231253    0.001220
      2          6           0        0.000096    0.580035    0.000333
      3          6           0        1.298670   -0.231936   -0.000658
      4          9           0        1.400418   -0.935087   -1.105289
      5          9           0       -2.314486    0.592605   -0.093070
      6          9           0       -1.409304   -0.919715    1.111506
      7          9           0       -0.000806    1.347067   -1.082119
      8          9           0        0.002147    1.348043    1.082768
      9          9           0        2.315716    0.594799    0.073955
     10          9           0        1.333489   -1.047833    1.030536
     11          9           0       -1.326812   -1.057776   -1.018884
 ---------------------------------------------------------------------
 Rotational constants (GHZ):           1.7196543           0.9761287           0.9207390
 Standard basis: 6-31G(d) (6D, 7F)
 There are   165 symmetry adapted cartesian basis functions of A   symmetry.
 There are   165 symmetry adapted basis functions of A   symmetry.
   165 basis functions,   308 primitive gaussians,   165 cartesian basis functions
    45 alpha electrons       45 beta electrons
       nuclear repulsion energy       806.6171770570 Hartrees.
 NAtoms=   11 NActive=   11 NUniq=   11 SFac= 1.00D+00 NAtFMM=   60 NAOKFM=F Big=F
 Integral buffers will be    131072 words long.
 Raffenetti 1 integral format.
 Two-electron integral symmetry is turned on.
 One-electron integrals computed using PRISM.
 NBasis=   165 RedAO= T EigKep=  1.54D-03  NBF=   165
 NBsUse=   165 1.00D-06 EigRej= -1.00D+00 NBFU=   165
 ExpMin= 1.69D-01 ExpMax= 7.00D+03 ExpMxC= 1.05D+03 IAcc=3 IRadAn=         5 AccDes= 0.00D+00
 Harris functional with IExCor=  205 and IRadAn=       5 diagonalized for initial guess.
 HarFok:  IExCor=  205 AccDes= 0.00D+00 IRadAn=         5 IDoV= 1 UseB2=F ITyADJ=14
 ICtDFT=  3500011 ScaDFX=  1.000000  1.000000  1.000000  1.000000
 FoFCou: FMM=F IPFlag=           0 FMFlag=      100000 FMFlg1=           0
         NFxFlg=           0 DoJE=T BraDBF=F KetDBF=T FulRan=T
         wScrn=  0.000000 ICntrl=       500 IOpCl=  0 I1Cent=   200000004 NGrid=           0
         NMat0=    1 NMatS0=      1 NMatT0=    0 NMatD0=    1 NMtDS0=    0 NMtDT0=    0
 Petite list used in FoFCou.
 Keep R1 ints in memory in canonical form, NReq=96071382.
 Requested convergence on RMS density matrix=1.00D-08 within 128 cycles.
 Requested convergence on MAX density matrix=1.00D-06.
 Requested convergence on             energy=1.00D-06.
 No special actions if energy rises.
 SCF Done:  E(RHF) =  -909.125427518     A.U. after   11 cycles
            NFock= 11  Conv=0.52D-08     -V/T= 2.0019

 **********************************************************************

            Population analysis using the SCF density.

 **********************************************************************

 Orbital symmetries:
       Occupied  (A) (A) (A) (A) (A) (A) (A) (A) (A) (A) (A) (A)
                 (A) (A) (A) (A) (A) (A) (A) (A) (A) (A) (A) (A)
                 (A) (A) (A) (A) (A) (A) (A) (A) (A) (A) (A) (A)
                 (A) (A) (A) (A) (A) (A) (A) (A) (A)
       Virtual   (A) (A) (A) (A) (A) (A) (A) (A) (A) (A) (A) (A)
                 (A) (A) (A) (A) (A) (A) (A) (A) (A) (A) (A) (A)
                 (A) (A) (A) (A) (A) (A) (A) (A) (A) (A) (A) (A)
                 (A) (A) (A) (A) (A) (A) (A) (A) (A) (A) (A) (A)
                 (A) (A) (A) (A) (A) (A) (A) (A) (A) (A) (A) (A)
                 (A) (A) (A) (A) (A) (A) (A) (A) (A) (A) (A) (A)
                 (A) (A) (A) (A) (A) (A) (A) (A) (A) (A) (A) (A)
                 (A) (A) (A) (A) (A) (A) (A) (A) (A) (A) (A) (A)
                 (A) (A) (A) (A) (A) (A) (A) (A) (A) (A) (A) (A)
                 (A) (A) (A) (A) (A) (A) (A) (A) (A) (A) (A) (A)
 The electronic state is 1-A.
 Alpha  occ. eigenvalues --  -26.37929 -26.37918 -26.37879 -26.37857 -26.37739
 Alpha  occ. eigenvalues --  -26.37738 -26.37511 -26.37499 -11.54796 -11.54754
 Alpha  occ. eigenvalues --  -11.47955  -1.78865  -1.77796  -1.73155  -1.68368
 Alpha  occ. eigenvalues --   -1.67718  -1.67529  -1.67509  -1.66392  -1.12539
 Alpha  occ. eigenvalues --   -1.02805  -0.95699  -0.90781  -0.88798  -0.87784
 Alpha  occ. eigenvalues --   -0.86500  -0.85627  -0.85466  -0.81550  -0.76133
 Alpha  occ. eigenvalues --   -0.75277  -0.74763  -0.73657  -0.73417  -0.73105
 Alpha  occ. eigenvalues --   -0.72311  -0.70293  -0.70162  -0.68547  -0.68532
 Alpha  occ. eigenvalues --   -0.68395  -0.67440  -0.67281  -0.63300  -0.56058
 Alpha virt. eigenvalues --    0.25194   0.25976   0.37907   0.38867   0.41832
 Alpha virt. eigenvalues --    0.44189   0.45776   0.49009   0.51584   0.55289
 Alpha virt. eigenvalues --    0.64028   0.64901   0.69159   0.69304   0.70388
 Alpha virt. eigenvalues --    0.76510   0.77878   0.85322   0.87084   0.88266
 Alpha virt. eigenvalues --    1.10223   1.11290   1.20280   1.24775   1.26706
 Alpha virt. eigenvalues --    1.30077   1.33407   1.34875   1.35833   1.37185
 Alpha virt. eigenvalues --    1.42113   1.44187   1.50604   1.55141   1.55448
 Alpha virt. eigenvalues --    1.56398   1.56713   1.59375   1.60240   1.61633
 Alpha virt. eigenvalues --    1.62830   1.63837   1.64020   1.64307   1.65282
 Alpha virt. eigenvalues --    1.67294   1.67728   1.70534   1.71459   1.73582
 Alpha virt. eigenvalues --    1.79004   1.84631   1.86676   1.87743   1.88030
 Alpha virt. eigenvalues --    1.95769   1.96772   1.97317   2.00291   2.04390
 Alpha virt. eigenvalues --    2.05030   2.06747   2.07958   2.09480   2.09890
 Alpha virt. eigenvalues --    2.10552   2.15677   2.18429   2.21610   2.25693
 Alpha virt. eigenvalues --    2.29121   2.30330   2.30590   2.30754   2.31297
 Alpha virt. eigenvalues --    2.37235   2.37624   2.38922   2.41339   2.42891
 Alpha virt. eigenvalues --    2.43325   2.47055   2.48333   2.53945   2.62860
 Alpha virt. eigenvalues --    2.65537   2.66190   2.70133   2.71396   2.78318
 Alpha virt. eigenvalues --    2.80849   2.81163   2.94678   3.01961   3.02096
 Alpha virt. eigenvalues --    3.15033   3.16465   3.18462   3.27565   3.27712
 Alpha virt. eigenvalues --    3.28228   3.37766   3.40891   3.42166   3.42777
 Alpha virt. eigenvalues --    3.46316   3.49843   3.50344   3.53425   4.56257
 Alpha virt. eigenvalues --    4.66135   4.75365   4.84273   5.08359   5.20854
 Alpha virt. eigenvalues --    5.61996   5.68813   6.07831   6.28233   6.36523
          Condensed to atoms (all electrons):
               1          2          3          4          5          6
     1  C    3.778849   0.365524  -0.059182   0.004145   0.295403   0.282554
     2  C    0.365524   4.439334   0.364910  -0.037784  -0.026166  -0.038225
     3  C   -0.059182   0.364910   3.779716   0.281490   0.001527   0.004144
     4  F    0.004145  -0.037784   0.281490   9.157258  -0.000001  -0.000073
     5  F    0.295403  -0.026166   0.001527  -0.000001   9.139223  -0.034477
     6  F    0.282554  -0.038225   0.004144  -0.000073  -0.034477   9.155523
     7  F   -0.019101   0.216207  -0.019248   0.001103   0.000572   0.000356
     8  F   -0.019171   0.216068  -0.019190   0.000354   0.000487   0.001139
     9  F    0.001522  -0.026048   0.294498  -0.034254  -0.000001  -0.000001
    10  F    0.007380  -0.039649   0.279578  -0.032947  -0.000000  -0.000239
    11  F    0.280204  -0.039726   0.007446  -0.000279  -0.034582  -0.033229
               7          8          9         10         11
     1  C   -0.019101  -0.019171   0.001522   0.007380   0.280204
     2  C    0.216207   0.216068  -0.026048  -0.039649  -0.039726
     3  C   -0.019248  -0.019190   0.294498   0.279578   0.007446
     4  F    0.001103   0.000354  -0.034254  -0.032947  -0.000279
     5  F    0.000572   0.000487  -0.000001  -0.000000  -0.034582
     6  F    0.000356   0.001139  -0.000001  -0.000239  -0.033229
     7  F    9.210238  -0.027810   0.000497   0.000355   0.000918
     8  F   -0.027810   9.210700   0.000567   0.000937   0.000357
     9  F    0.000497   0.000567   9.140362  -0.033978  -0.000000
    10  F    0.000355   0.000937  -0.033978   9.160261  -0.000278
    11  F    0.000918   0.000357  -0.000000  -0.000278   9.159333
 Mulliken charges:
               1
     1  C    1.081872
     2  C    0.605555
     3  C    1.084313
     4  F   -0.339011
     5  F   -0.341985
     6  F   -0.337473
     7  F   -0.364087
     8  F   -0.364438
     9  F   -0.343164
    10  F   -0.341420
    11  F   -0.340163
 Sum of Mulliken charges =  -0.00000
 Mulliken charges with hydrogens summed into heavy atoms:
               1
     1  C    1.081872
     2  C    0.605555
     3  C    1.084313
     4  F   -0.339011
     5  F   -0.341985
     6  F   -0.337473
     7  F   -0.364087
     8  F   -0.364438
     9  F   -0.343164
    10  F   -0.341420
    11  F   -0.340163
 Electronic spatial extent (au):  <R**2>=           1282.5018
 Charge=             -0.0000 electrons
 Dipole moment (field-independent basis, Debye):
    X=             -0.0092    Y=             -0.1284    Z=              0.0023  Tot=              0.1287
 Quadrupole moment (field-independent basis, Debye-Ang):
   XX=            -56.8368   YY=            -57.2390   ZZ=            -57.3064
   XY=              0.0019   XZ=             -0.0098   YZ=             -0.0034
 Traceless Quadrupole moment (field-independent basis, Debye-Ang):
   XX=              0.2906   YY=             -0.1116   ZZ=             -0.1790
   XY=              0.0019   XZ=             -0.0098   YZ=             -0.0034
 Octapole moment (field-independent basis, Debye-Ang**2):
  XXX=             -0.0593  YYY=             -1.5054  ZZZ=             -0.0562  XYY=             -0.0287
  XXY=             -1.9655  XXZ=              0.0222  XZZ=             -0.0170  YZZ=              0.5668
  YYZ=              0.0259  XYZ=             -0.1894
 Hexadecapole moment (field-independent basis, Debye-Ang**3):
 XXXX=           -670.7227 YYYY=           -283.2514 ZZZZ=           -228.2555 XXXY=              0.0047
 XXXZ=             -0.4537 YYYX=              0.0223 YYYZ=             -0.0405 ZZZX=              0.6031
 ZZZY=              0.0040 XXYY=           -158.5257 XXZZ=           -150.5351 YYZZ=            -88.5743
 XXYZ=              0.0499 YYXZ=             -0.3612 ZZXY=              0.0262
 N-N= 8.066171770570D+02 E-N=-3.779620851754D+03  KE= 9.073982067958D+02
 Calling FoFJK, ICntrl=      2127 FMM=F ISym2X=0 I1Cent= 0 IOpClX= 0 NMat=1 NMatS=1 NMatT=0.
 ***** Axes restored to original set *****
 -------------------------------------------------------------------
 Center     Atomic                   Forces (Hartrees/Bohr)
 Number     Number              X              Y              Z
 -------------------------------------------------------------------
      1        6           0.000372411    0.000058090   -0.000736566
      2        6          -0.000402089    0.000426493    0.000336014
      3        6           0.001566374   -0.001422006    0.001121042
      4        9          -0.001978917    0.000032493    0.002018041
      5        9          -0.000048479   -0.000497608    0.000441958
      6        9           0.000117816    0.000030119   -0.000265719
      7        9           0.000108890   -0.000335737    0.000599245
      8        9           0.000324974    0.000037932   -0.001009336
      9        9          -0.000549884   -0.001849181   -0.002167392
     10        9           0.001214699    0.003403871   -0.001099341
     11        9          -0.000725796    0.000115533    0.000762055
 -------------------------------------------------------------------
 Cartesian Forces:  Max     0.003403871 RMS     0.001112109

 GradGradGradGradGradGradGradGradGradGradGradGradGradGradGradGradGradGrad
 Berny optimization.
 Search for a local minimum.
 Step number   1 out of a maximum of    2
 All quantities printed in internal units (Hartrees-Bohrs-Radians)
 Second derivative matrix not updated -- first step.
 ITU=  0
     Eigenvalues ---    0.00208   0.00323   0.01380   0.03378   0.05332
     Eigenvalues ---    0.05350   0.05398   0.06857   0.08536   0.09223
     Eigenvalues ---    0.12474   0.14547   0.15177   0.15845   0.18450
     Eigenvalues ---    0.21665   0.24529   0.36773   0.65678   1.01298
     Eigenvalues ---    1.21666   1.29648   1.47507   1.62178   1.63152
     Eigenvalues ---    1.68337   1.73221
 Angle between quadratic step and forces=  82.87 degrees.
 Linear search not attempted -- first point.
 B after Tr=    -0.000112    0.000098   -0.000206
         Rot=    1.000000   -0.000001   -0.000037   -0.000025 Ang=  -0.01 deg.
 Variable       Old X    -DE/DX   Delta X   Delta X   Delta X     New X
                                 (Linear)    (Quad)   (Total)
    X1       -5.05964   0.00037   0.00000   0.00484   0.00467  -5.05496
    Y1        0.93695   0.00006   0.00000   0.00344   0.00328   0.94023
    Z1       -0.09684  -0.00074   0.00000  -0.00454  -0.00437  -0.10121
    X2       -3.86114  -0.00040   0.00000   0.00539   0.00532  -3.85582
    Y2        2.31879   0.00043   0.00000   0.00538   0.00528   2.32407
    Z2        2.14685   0.00034   0.00000  -0.00558  -0.00550   2.14135
    X3       -1.68184   0.00157   0.00000  -0.00760  -0.00750  -1.68934
    Y3        0.94514  -0.00142   0.00000  -0.00390  -0.00389   0.94125
    Z3        3.46593   0.00112   0.00000   0.00662   0.00655   3.47247
    X4        0.23641  -0.00198   0.00000  -0.01301  -0.01301   0.22341
    Y4        0.66895   0.00003   0.00000  -0.04479  -0.04469   0.62426
    Z4        1.91542   0.00202   0.00000   0.01425   0.01403   1.92945
    X5       -6.76059  -0.00005   0.00000  -0.04590  -0.04621  -6.80680
    Y5        2.41073  -0.00050   0.00000  -0.02645  -0.02669   2.38404
    Z5       -1.13152   0.00044   0.00000   0.03796   0.03827  -1.09326
    X6       -6.15390   0.00012   0.00000   0.06297   0.06297  -6.09093
    Y6       -1.15393   0.00003   0.00000  -0.03006  -0.03027  -1.18419
    Z6        0.65737  -0.00027   0.00000  -0.01386  -0.01362   0.64375
    X7       -2.99276   0.00011   0.00000   0.02262   0.02238  -2.97038
    Y7        4.51960  -0.00034   0.00000  -0.00119  -0.00125   4.51835
    Z7        1.31764   0.00060   0.00000  -0.00270  -0.00268   1.31496
    X8       -5.65643   0.00032   0.00000  -0.00160  -0.00156  -5.65799
    Y8        2.72382   0.00004   0.00000   0.02027   0.02007   2.74390
    Z8        3.85077  -0.00101   0.00000  -0.01872  -0.01850   3.83227
    X9       -0.95251  -0.00055   0.00000   0.01069   0.01087  -0.94164
    Y9        2.28968  -0.00185   0.00000   0.00104   0.00108   2.29076
    Z9        5.41908  -0.00217   0.00000  -0.00933  -0.00946   5.40962
   X10       -2.41346   0.00121   0.00000  -0.02994  -0.02967  -2.44313
   Y10       -1.29595   0.00340   0.00000   0.01779   0.01775  -1.27820
   Z10        4.25401  -0.00110   0.00000   0.02868   0.02866   4.28267
   X11       -3.33881  -0.00073   0.00000  -0.00799  -0.00826  -3.34707
   Y11        0.38075   0.00012   0.00000   0.05938   0.05932   0.44007
   Z11       -1.79618   0.00076   0.00000  -0.03343  -0.03339  -1.82956
         Item               Value     Threshold  Converged?
 Maximum Force            0.003404     0.000450     NO 
 RMS     Force            0.001112     0.000300     NO 
 Maximum Displacement     0.062969     0.001800     NO 
 RMS     Displacement     0.024728     0.001200     NO 
 Predicted change in Energy=-5.634448D-05
 GradGradGradGradGradGradGradGradGradGradGradGradGradGradGradGradGradGrad

 1\1\GINC-MU01\Force\RHF\6-31G(d)\C3F8\LBL8\15-Sep-2025\0\\# hf/6-31G(d
 ) force\\Force calculation\\0,1\C,-2.67744363,0.49581118,-0.05124668\C
 ,-2.0432293,1.2270526,1.13606198\C,-0.8899888,0.50014868,1.83408862\F,
 0.12510395,0.35399449,1.01359484\F,-3.57755113,1.27570464,-0.59877623\
 F,-3.25650172,-0.61063114,0.34786727\F,-1.58369945,2.39166939,0.697265
 97\F,-2.99325172,1.44138557,2.03773964\F,-0.50404713,1.21164634,2.8676
 5498\F,-1.27714768,-0.68578964,2.25112547\F,-1.7668229,0.20148646,-0.9
 5049651\\Version=ES64L-G16RevA.03\State=1-A\HF=-909.1254275\RMSD=5.204
 e-09\RMSF=1.112e-03\Dipole=0.0130976,-0.0457649,-0.0172754\Quadrupole=
 0.0419037,-0.0906491,0.0487453,-0.0098332,0.170814,0.01609\PG=C01 [X(C
 3F8)]\\@


 EDUCATION IS NOT TRAINING BUT RATHER THE PROCESS THAT EQUIPS YOU TO
 ENTERTAIN YOURSELF, A FRIEND, OR AN IDEA.  -- WALLACE STERLING
 Job cpu time:       0 days  0 hours  0 minutes  7.6 seconds.
 Elapsed time:       0 days  0 hours  0 minutes  7.7 seconds.
 File lengths (MBytes):  RWF=     28 Int=      0 D2E=      0 Chk=      4 Scr=      2
 Normal termination of Gaussian 16 at Mon Sep 15 21:55:04 2025.
