 Entering Gaussian System, Link 0=g16
 Input=gauss.gjf
 Output=gauss.log
 Initial command:
 /software/Applications/gaussian/G16.A03.AVX/g16/l1.exe "/home/lbl8/code/hartree-fock_geomopt-rev-3/example/Gau-3226809.inp" -scrdir="/home/lbl8/code/hartree-fock_geomopt-rev-3/example/"
 Entering Link 1 = /software/Applications/gaussian/G16.A03.AVX/g16/l1.exe PID=   3226811.
  
 Copyright (c) 1988,1990,1992,1993,1995,1998,2003,2009,2016,
            Gaussian, Inc.  All Rights Reserved.
  
 This is part of the Gaussian(R) 16 program.  It is based on
 the Gaussian(R) 09 system (copyright 2009, Gaussian, Inc.),
 the Gaussian(R) 03 system (copyright 2003, Gaussian, Inc.),
 the Gaussian(R) 98 system (copyright 1998, Gaussian, Inc.),
 the Gaussian(R) 94 system (copyright 1995, Gaussian, Inc.),
 the Gaussian 92(TM) system (copyright 1992, Gaussian, Inc.),
 the Gaussian 90(TM) system (copyright 1990, Gaussian, Inc.),
 the Gaussian 88(TM) system (copyright 1988, Gaussian, Inc.),
 the Gaussian 86(TM) system (copyright 1986, Carnegie Mellon
 University), and the Gaussian 82(TM) system (copyright 1983,
 Carnegie Mellon University). Gaussian is a federally registered
 trademark of Gaussian, Inc.
  
 This software contains proprietary and confidential information,
 including trade secrets, belonging to Gaussian, Inc.
  
 This software is provided under written license and may be
 used, copied, transmitted, or stored only in accord with that
 written license.
  
 The following legend is applicable only to US Government
 contracts under FAR:
  
                    RESTRICTED RIGHTS LEGEND
  
 Use, reproduction and disclosure by the US Government is
 subject to restrictions as set forth in subparagraphs (a)
 and (c) of the Commercial Computer Software - Restricted
 Rights clause in FAR 52.227-19.
  
 Gaussian, Inc.
 340 Quinnipiac St., Bldg. 40, Wallingford CT 06492
  
  
 ---------------------------------------------------------------
 Warning -- This program may not be used in any manner that
 competes with the business of Gaussian, Inc. or will provide
 assistance to any competitor of Gaussian, Inc.  The licensee
 of this program is prohibited from giving any competitor of
 Gaussian, Inc. access to this program.  By using this program,
 the user acknowledges that Gaussian, Inc. is engaged in the
 business of creating and licensing software in the field of
 computational chemistry and represents and warrants to the
 licensee that it is not a competitor of Gaussian, Inc. and that
 it will not use this program in any manner prohibited above.
 ---------------------------------------------------------------
  

 Cite this work as:
 Gaussian 16, Revision A.03,
 M. J. Frisch, G. W. Trucks, H. B. Schlegel, G. E. Scuseria, 
 M. A. Robb, J. R. Cheeseman, G. Scalmani, V. Barone, 
 G. A. Petersson, H. Nakatsuji, X. Li, M. Caricato, A. V. Marenich, 
 J. Bloino, B. G. Janesko, R. Gomperts, B. Mennucci, H. P. Hratchian, 
 J. V. Ortiz, A. F. Izmaylov, J. L. Sonnenberg, D. Williams-Young, 
 F. Ding, F. Lipparini, F. Egidi, J. Goings, B. Peng, A. Petrone, 
 T. Henderson, D. Ranasinghe, V. G. Zakrzewski, J. Gao, N. Rega, 
 G. Zheng, W. Liang, M. Hada, M. Ehara, K. Toyota, R. Fukuda, 
 J. Hasegawa, M. Ishida, T. Nakajima, Y. Honda, O. Kitao, H. Nakai, 
 T. Vreven, K. Throssell, J. A. Montgomery, Jr., J. E. Peralta, 
 F. Ogliaro, M. J. Bearpark, J. J. Heyd, E. N. Brothers, K. N. Kudin, 
 V. N. Staroverov, T. A. Keith, R. Kobayashi, J. Normand, 
 K. Raghavachari, A. P. Rendell, J. C. Burant, S. S. Iyengar, 
 J. Tomasi, M. Cossi, J. M. Millam, M. Klene, C. Adamo, R. Cammi, 
 J. W. Ochterski, R. L. Martin, K. Morokuma, O. Farkas, 
 J. B. Foresman, and D. J. Fox, Gaussian, Inc., Wallingford CT, 2016.
 
 ******************************************
 Gaussian 16:  ES64L-G16RevA.03 25-Dec-2016
                15-Sep-2025 
 ******************************************
 %chk=gauss.chk
 -------------------
 # hf/6-31G(d) force
 -------------------
 1/10=7,30=1,38=1/1,3;
 2/12=2,17=6,18=5,40=1/2;
 3/5=1,6=6,7=1,11=9,25=1,30=1,71=1/1,2,3;
 4//1;
 5/5=2,38=5/2;
 6/7=2,8=2,9=2,10=2,28=1/1;
 7/29=1/1,2,3,16;
 1/10=7,30=1/3;
 99//99;
 -----------------
 Force calculation
 -----------------
 Symbolic Z-matrix:
 Charge =  0 Multiplicity = 1
 C                    -2.6947    0.46332  -0.03085 
 C                    -2.12909   1.17594   1.25113 
 C                    -0.81673   0.5979    1.73438 
 F                     0.11202   0.71324   0.79477 
 F                    -2.89171   1.34872  -0.98403 
 F                    -3.84101  -0.11296   0.24858 
 F                    -1.93952   2.45552   0.98891 
 F                    -3.00592   1.07094   2.22746 
 F                    -0.40243   1.21459   2.79773 
 F                    -0.96516  -0.68705   2.02147 
 F                    -1.87033  -0.43769  -0.46467 
 

 GradGradGradGradGradGradGradGradGradGradGradGradGradGradGradGradGradGrad
 Berny optimization.
 Initialization pass.
 Trust Radius=3.00D-01 FncErr=1.00D-07 GrdErr=1.00D-07 EigMax=2.50D+02 EigMin=1.00D-04
 Number of steps in this run=      2 maximum allowed number of steps=      2.
 GradGradGradGradGradGradGradGradGradGradGradGradGradGradGradGradGradGrad

                          Input orientation:                          
 ---------------------------------------------------------------------
 Center     Atomic      Atomic             Coordinates (Angstroms)
 Number     Number       Type             X           Y           Z
 ---------------------------------------------------------------------
      1          6           0       -2.694699    0.463324   -0.030850
      2          6           0       -2.129091    1.175942    1.251126
      3          6           0       -0.816727    0.597898    1.734380
      4          9           0        0.112015    0.713237    0.794775
      5          9           0       -2.891706    1.348719   -0.984033
      6          9           0       -3.841007   -0.112955    0.248584
      7          9           0       -1.939519    2.455521    0.988913
      8          9           0       -3.005919    1.070937    2.227457
      9          9           0       -0.402434    1.214594    2.797725
     10          9           0       -0.965158   -0.687049    2.021468
     11          9           0       -1.870333   -0.437691   -0.464666
 ---------------------------------------------------------------------
                    Distance matrix (angstroms):
                    1          2          3          4          5
     1  C    0.000000
     2  C    1.572005   0.000000
     3  C    2.580877   1.513265   0.000000
     4  F    2.936283   2.333433   1.326168   0.000000
     5  F    1.315786   2.367988   3.501291   3.548286   0.000000
     6  F    1.313089   2.365799   3.443715   4.075206   2.134715
     7  F    2.362004   1.319854   2.295026   2.698524   2.454422
     8  F    2.359238   1.316463   2.293350   3.449933   3.225503
     9  F    3.717489   2.318363   1.297172   2.127869   4.529476
    10  F    2.920048   2.327853   1.324967   2.150785   4.109619
    11  F    1.295995   2.369538   2.649214   2.615441   2.122311
                    6          7          8          9         10
     6  F    0.000000
     7  F    3.280368   0.000000
     8  F    2.452532   2.142025   0.000000
     9  F    4.481551   2.678494   2.669078   0.000000
    10  F    3.426837   3.448375   2.701416   2.129666   0.000000
    11  F    2.120786   3.238572   3.288318   3.940554   2.657514
                   11
    11  F    0.000000
 Stoichiometry    C3F8
 Framework group  C1[X(C3F8)]
 Deg. of freedom    27
 Full point group                 C1      NOp   1
 Largest Abelian subgroup         C1      NOp   1
 Largest concise Abelian subgroup C1      NOp   1
                         Standard orientation:                         
 ---------------------------------------------------------------------
 Center     Atomic      Atomic             Coordinates (Angstroms)
 Number     Number       Type             X           Y           Z
 ---------------------------------------------------------------------
      1          6           0       -1.301569   -0.221611   -0.000750
      2          6           0        0.028715    0.615966    0.002359
      3          6           0        1.279267   -0.236139   -0.000072
      4          9           0        1.314403   -1.000760   -1.083050
      5          9           0       -2.048462    0.129793   -1.025425
      6          9           0       -1.973630    0.004990    1.104325
      7          9           0        0.058659    1.387735   -1.067916
      8          9           0        0.057012    1.379941    1.074093
      9          9           0        2.344355    0.504173    0.013399
     10          9           0        1.295923   -1.020623    1.067564
     11          9           0       -1.052535   -1.490725   -0.084015
 ---------------------------------------------------------------------
 Rotational constants (GHZ):           1.7098551           0.9816522           0.9209102
 Standard basis: 6-31G(d) (6D, 7F)
 There are   165 symmetry adapted cartesian basis functions of A   symmetry.
 There are   165 symmetry adapted basis functions of A   symmetry.
   165 basis functions,   308 primitive gaussians,   165 cartesian basis functions
    45 alpha electrons       45 beta electrons
       nuclear repulsion energy       807.6333984256 Hartrees.
 NAtoms=   11 NActive=   11 NUniq=   11 SFac= 1.00D+00 NAtFMM=   60 NAOKFM=F Big=F
 Integral buffers will be    131072 words long.
 Raffenetti 1 integral format.
 Two-electron integral symmetry is turned on.
 One-electron integrals computed using PRISM.
 NBasis=   165 RedAO= T EigKep=  8.11D-04  NBF=   165
 NBsUse=   165 1.00D-06 EigRej= -1.00D+00 NBFU=   165
 ExpMin= 1.69D-01 ExpMax= 7.00D+03 ExpMxC= 1.05D+03 IAcc=3 IRadAn=         5 AccDes= 0.00D+00
 Harris functional with IExCor=  205 and IRadAn=       5 diagonalized for initial guess.
 HarFok:  IExCor=  205 AccDes= 0.00D+00 IRadAn=         5 IDoV= 1 UseB2=F ITyADJ=14
 ICtDFT=  3500011 ScaDFX=  1.000000  1.000000  1.000000  1.000000
 FoFCou: FMM=F IPFlag=           0 FMFlag=      100000 FMFlg1=           0
         NFxFlg=           0 DoJE=T BraDBF=F KetDBF=T FulRan=T
         wScrn=  0.000000 ICntrl=       500 IOpCl=  0 I1Cent=   200000004 NGrid=           0
         NMat0=    1 NMatS0=      1 NMatT0=    0 NMatD0=    1 NMtDS0=    0 NMtDT0=    0
 Petite list used in FoFCou.
 Keep R1 ints in memory in canonical form, NReq=96071382.
 Requested convergence on RMS density matrix=1.00D-08 within 128 cycles.
 Requested convergence on MAX density matrix=1.00D-06.
 Requested convergence on             energy=1.00D-06.
 No special actions if energy rises.
 SCF Done:  E(RHF) =  -909.118596470     A.U. after   11 cycles
            NFock= 11  Conv=0.54D-08     -V/T= 2.0018

 **********************************************************************

            Population analysis using the SCF density.

 **********************************************************************

 Orbital symmetries:
       Occupied  (A) (A) (A) (A) (A) (A) (A) (A) (A) (A) (A) (A)
                 (A) (A) (A) (A) (A) (A) (A) (A) (A) (A) (A) (A)
                 (A) (A) (A) (A) (A) (A) (A) (A) (A) (A) (A) (A)
                 (A) (A) (A) (A) (A) (A) (A) (A) (A)
       Virtual   (A) (A) (A) (A) (A) (A) (A) (A) (A) (A) (A) (A)
                 (A) (A) (A) (A) (A) (A) (A) (A) (A) (A) (A) (A)
                 (A) (A) (A) (A) (A) (A) (A) (A) (A) (A) (A) (A)
                 (A) (A) (A) (A) (A) (A) (A) (A) (A) (A) (A) (A)
                 (A) (A) (A) (A) (A) (A) (A) (A) (A) (A) (A) (A)
                 (A) (A) (A) (A) (A) (A) (A) (A) (A) (A) (A) (A)
                 (A) (A) (A) (A) (A) (A) (A) (A) (A) (A) (A) (A)
                 (A) (A) (A) (A) (A) (A) (A) (A) (A) (A) (A) (A)
                 (A) (A) (A) (A) (A) (A) (A) (A) (A) (A) (A) (A)
                 (A) (A) (A) (A) (A) (A) (A) (A) (A) (A) (A) (A)
 The electronic state is 1-A.
 Alpha  occ. eigenvalues --  -26.38332 -26.38122 -26.37548 -26.37443 -26.37422
 Alpha  occ. eigenvalues --  -26.37413 -26.37327 -26.37303 -11.54870 -11.54444
 Alpha  occ. eigenvalues --  -11.48077  -1.79034  -1.77770  -1.73708  -1.68265
 Alpha  occ. eigenvalues --   -1.68064  -1.67615  -1.66943  -1.66067  -1.12367
 Alpha  occ. eigenvalues --   -1.02421  -0.95604  -0.90962  -0.89190  -0.87547
 Alpha  occ. eigenvalues --   -0.86434  -0.85841  -0.85270  -0.81645  -0.76804
 Alpha  occ. eigenvalues --   -0.75242  -0.74800  -0.73963  -0.73751  -0.72840
 Alpha  occ. eigenvalues --   -0.71443  -0.70347  -0.69963  -0.68257  -0.68126
 Alpha  occ. eigenvalues --   -0.68010  -0.67116  -0.66967  -0.63358  -0.55958
 Alpha virt. eigenvalues --    0.24277   0.25493   0.35691   0.38932   0.42563
 Alpha virt. eigenvalues --    0.44793   0.46851   0.51645   0.52562   0.56172
 Alpha virt. eigenvalues --    0.64653   0.65162   0.68150   0.68759   0.72519
 Alpha virt. eigenvalues --    0.76823   0.77027   0.85814   0.87462   0.90597
 Alpha virt. eigenvalues --    1.04110   1.13938   1.20707   1.24101   1.25236
 Alpha virt. eigenvalues --    1.31683   1.33392   1.34385   1.34636   1.35540
 Alpha virt. eigenvalues --    1.40463   1.47893   1.51250   1.52576   1.52878
 Alpha virt. eigenvalues --    1.56324   1.56838   1.59497   1.61118   1.61631
 Alpha virt. eigenvalues --    1.63233   1.63506   1.64685   1.65007   1.66703
 Alpha virt. eigenvalues --    1.67733   1.68945   1.72083   1.73309   1.78921
 Alpha virt. eigenvalues --    1.79389   1.81331   1.84825   1.89051   1.94151
 Alpha virt. eigenvalues --    1.96964   1.97273   1.99296   2.02510   2.05712
 Alpha virt. eigenvalues --    2.06234   2.07864   2.08426   2.09418   2.11109
 Alpha virt. eigenvalues --    2.13468   2.14417   2.18810   2.21180   2.27089
 Alpha virt. eigenvalues --    2.27605   2.30419   2.31155   2.33228   2.33295
 Alpha virt. eigenvalues --    2.38096   2.38845   2.38933   2.39406   2.40204
 Alpha virt. eigenvalues --    2.40408   2.43689   2.47395   2.50631   2.51111
 Alpha virt. eigenvalues --    2.56652   2.65975   2.71102   2.75684   2.77321
 Alpha virt. eigenvalues --    2.87543   2.93147   2.97931   2.98192   3.04778
 Alpha virt. eigenvalues --    3.08313   3.14411   3.17916   3.26898   3.28171
 Alpha virt. eigenvalues --    3.32867   3.36570   3.40753   3.41497   3.43403
 Alpha virt. eigenvalues --    3.45372   3.49931   3.50997   3.53555   4.45398
 Alpha virt. eigenvalues --    4.52229   4.74399   4.81233   5.08941   5.22759
 Alpha virt. eigenvalues --    5.53526   5.60098   6.16289   6.27363   7.54545
          Condensed to atoms (all electrons):
               1          2          3          4          5          6
     1  C    3.765424   0.375822  -0.072926   0.007216   0.287003   0.288022
     2  C    0.375822   4.427388   0.377023  -0.037880  -0.028333  -0.029890
     3  C   -0.072926   0.377023   3.768233   0.272529   0.001115   0.001032
     4  F    0.007216  -0.037880   0.272529   9.182267  -0.000064   0.000002
     5  F    0.287003  -0.028333   0.001115  -0.000064   9.153305  -0.034608
     6  F    0.288022  -0.029890   0.001032   0.000002  -0.034608   9.150611
     7  F   -0.017788   0.218079  -0.018651   0.000928  -0.000646   0.000286
     8  F   -0.018030   0.218754  -0.018780   0.000372   0.000256  -0.000501
     9  F    0.001371  -0.023826   0.304133  -0.035216  -0.000001  -0.000001
    10  F    0.008983  -0.039838   0.272490  -0.031208   0.000002  -0.000105
    11  F    0.290605  -0.037024   0.012134  -0.001609  -0.035556  -0.035664
               7          8          9         10         11
     1  C   -0.017788  -0.018030   0.001371   0.008983   0.290605
     2  C    0.218079   0.218754  -0.023826  -0.039838  -0.037024
     3  C   -0.018651  -0.018780   0.304133   0.272490   0.012134
     4  F    0.000928   0.000372  -0.035216  -0.031208  -0.001609
     5  F   -0.000646   0.000256  -0.000001   0.000002  -0.035556
     6  F    0.000286  -0.000501  -0.000001  -0.000105  -0.035664
     7  F    9.205612  -0.030773   0.000421   0.000378   0.000326
     8  F   -0.030773   9.202353   0.000449   0.000965   0.000339
     9  F    0.000421   0.000449   9.117004  -0.034763  -0.000002
    10  F    0.000378   0.000965  -0.034763   9.181423  -0.001538
    11  F    0.000326   0.000339  -0.000002  -0.001538   9.134753
 Mulliken charges:
               1
     1  C    1.084299
     2  C    0.579726
     3  C    1.101669
     4  F   -0.357337
     5  F   -0.342472
     6  F   -0.339185
     7  F   -0.358173
     8  F   -0.355405
     9  F   -0.329570
    10  F   -0.356789
    11  F   -0.326763
 Sum of Mulliken charges =  -0.00000
 Mulliken charges with hydrogens summed into heavy atoms:
               1
     1  C    1.084299
     2  C    0.579726
     3  C    1.101669
     4  F   -0.357337
     5  F   -0.342472
     6  F   -0.339185
     7  F   -0.358173
     8  F   -0.355405
     9  F   -0.329570
    10  F   -0.356789
    11  F   -0.326763
 Electronic spatial extent (au):  <R**2>=           1281.4203
 Charge=             -0.0000 electrons
 Dipole moment (field-independent basis, Debye):
    X=             -0.0024    Y=              0.0378    Z=              0.0189  Tot=              0.0423
 Quadrupole moment (field-independent basis, Debye-Ang):
   XX=            -56.9507   YY=            -57.1186   ZZ=            -57.3767
   XY=              0.2013   XZ=              0.0073   YZ=              0.0282
 Traceless Quadrupole moment (field-independent basis, Debye-Ang):
   XX=              0.1980   YY=              0.0301   ZZ=             -0.2281
   XY=              0.2013   XZ=              0.0073   YZ=              0.0282
 Octapole moment (field-independent basis, Debye-Ang**2):
  XXX=              0.4653  YYY=             -0.5549  ZZZ=             -0.1607  XYY=             -1.1076
  XXY=             -1.1978  XXZ=              0.1253  XZZ=              1.0196  YZZ=             -1.1492
  YYZ=              0.1622  XYZ=             -0.1452
 Hexadecapole moment (field-independent basis, Debye-Ang**3):
 XXXX=           -666.3528 YYYY=           -288.2000 ZZZZ=           -227.7836 XXXY=             -0.7888
 XXXZ=             -0.3174 YYYX=             -0.7822 YYYZ=             -0.0216 ZZZX=              0.3452
 ZZZY=              0.0628 XXYY=           -155.7644 XXZZ=           -152.9351 YYZZ=            -88.3029
 XXYZ=              0.2282 YYXZ=             -0.1766 ZZXY=              2.4033
 N-N= 8.076333984256D+02 E-N=-3.781764211033D+03  KE= 9.074600357496D+02
 Calling FoFJK, ICntrl=      2127 FMM=F ISym2X=0 I1Cent= 0 IOpClX= 0 NMat=1 NMatS=1 NMatT=0.
 ***** Axes restored to original set *****
 -------------------------------------------------------------------
 Center     Atomic                   Forces (Hartrees/Bohr)
 Number     Number              X              Y              Z
 -------------------------------------------------------------------
      1        6          -0.011209105    0.017134468    0.008621872
      2        6          -0.007120131   -0.003071437   -0.014177663
      3        6           0.018717125   -0.020770681   -0.009495645
      4        9          -0.008309167    0.000990343    0.007325573
      5        9           0.000528036   -0.003480763    0.003655689
      6        9           0.002480538    0.000915740   -0.000780796
      7        9           0.001777448    0.004534397   -0.001373507
      8        9          -0.004869670   -0.001165077    0.006074147
      9        9           0.000232431    0.006987165    0.008849678
     10        9          -0.000582787    0.009434924   -0.001300189
     11        9           0.008355279   -0.011509081   -0.007399158
 -------------------------------------------------------------------
 Cartesian Forces:  Max     0.020770681 RMS     0.008432445

 GradGradGradGradGradGradGradGradGradGradGradGradGradGradGradGradGradGrad
 Berny optimization.
 Search for a local minimum.
 Step number   1 out of a maximum of    2
 All quantities printed in internal units (Hartrees-Bohrs-Radians)
 Second derivative matrix not updated -- first step.
 ITU=  0
     Eigenvalues ---    0.00166   0.00450   0.01348   0.03487   0.05220
     Eigenvalues ---    0.05361   0.05538   0.06898   0.08533   0.09341
     Eigenvalues ---    0.12637   0.14401   0.15152   0.15820   0.18466
     Eigenvalues ---    0.21679   0.24737   0.36478   0.64888   1.02758
     Eigenvalues ---    1.20109   1.34144   1.47420   1.58919   1.67457
     Eigenvalues ---    1.72407   1.73488
 Quadratic step=3.146D-01 exceeds max=3.000D-01 adjusted using Lamda=-1.926D-04.
 Angle between NR and scaled steps=   2.45 degrees.
 Angle between quadratic step and forces=  79.49 degrees.
 Linear search not attempted -- first point.
 B after Tr=    -0.000401    0.001360    0.000678
         Rot=    1.000000   -0.000002    0.000016   -0.000086 Ang=  -0.01 deg.
 Variable       Old X    -DE/DX   Delta X   Delta X   Delta X     New X
                                 (Linear)    (Quad)   (Total)
    X1       -5.09224  -0.01121   0.00000  -0.02619  -0.02674  -5.11898
    Y1        0.87556   0.01713   0.00000   0.00467   0.00515   0.88071
    Z1       -0.05830   0.00862   0.00000  -0.01518  -0.01465  -0.07295
    X2       -4.02340  -0.00712   0.00000   0.02676   0.02590  -3.99749
    Y2        2.22221  -0.00307   0.00000  -0.02200  -0.02134   2.20087
    Z2        2.36429  -0.01418   0.00000  -0.04650  -0.04594   2.31835
    X3       -1.54339   0.01872   0.00000   0.04067   0.03998  -1.50341
    Y3        1.12986  -0.02077   0.00000  -0.02751  -0.02642   1.10344
    Z3        3.27750  -0.00950   0.00000   0.02718   0.02782   3.30532
    X4        0.21168  -0.00831   0.00000   0.07681   0.07613   0.28781
    Y4        1.34782   0.00099   0.00000   0.00619   0.00759   1.35541
    Z4        1.50191   0.00733   0.00000   0.09256   0.09325   1.59516
    X5       -5.46453   0.00053   0.00000  -0.12713  -0.12792  -5.59245
    Y5        2.54871  -0.00348   0.00000   0.02897   0.02938   2.57809
    Z5       -1.85955   0.00366   0.00000   0.03937   0.03989  -1.81966
    X6       -7.25845   0.00248   0.00000   0.01155   0.01118  -7.24727
    Y6       -0.21345   0.00092   0.00000  -0.03093  -0.03082  -0.24427
    Z6        0.46975  -0.00078   0.00000   0.04603   0.04648   0.51624
    X7       -3.66516   0.00178   0.00000   0.06990   0.06865  -3.59650
    Y7        4.64026   0.00453   0.00000  -0.02533  -0.02460   4.61566
    Z7        1.86878  -0.00137   0.00000  -0.07158  -0.07100   1.79778
    X8       -5.68036  -0.00487   0.00000   0.01531   0.01443  -5.66594
    Y8        2.02378  -0.00117   0.00000   0.02464   0.02501   2.04879
    Z8        4.20928   0.00607   0.00000  -0.03492  -0.03441   4.17488
    X9       -0.76049   0.00023   0.00000  -0.06870  -0.06967  -0.83016
    Y9        2.29525   0.00699   0.00000   0.02152   0.02271   2.31796
    Z9        5.28693   0.00885   0.00000   0.06046   0.06112   5.34806
   X10       -1.82388  -0.00058   0.00000   0.02963   0.02933  -1.79455
   Y10       -1.29833   0.00943   0.00000  -0.00769  -0.00665  -1.30499
   Z10        3.82002  -0.00130   0.00000   0.03897   0.03959   3.85961
   X11       -3.53442   0.00836   0.00000  -0.04105  -0.04128  -3.57570
   Y11       -0.82712  -0.01151   0.00000   0.01923   0.01999  -0.80713
   Z11       -0.87809  -0.00740   0.00000  -0.14272  -0.14216  -1.02025
         Item               Value     Threshold  Converged?
 Maximum Force            0.020771     0.000450     NO 
 RMS     Force            0.008432     0.000300     NO 
 Maximum Displacement     0.142159     0.001800     NO 
 RMS     Displacement     0.052261     0.001200     NO 
 Predicted change in Energy=-1.335033D-03
 GradGradGradGradGradGradGradGradGradGradGradGradGradGradGradGradGradGrad

 1\1\GINC-MU01\Force\RHF\6-31G(d)\C3F8\LBL8\15-Sep-2025\0\\# hf/6-31G(d
 ) force\\Force calculation\\0,1\C,-2.69469896,0.46332403,-0.03085017\C
 ,-2.12909097,1.17594225,1.25112613\C,-0.81672659,0.59789782,1.73437992
 \F,0.11201503,0.71323749,0.79477482\F,-2.89170566,1.34871902,-0.984032
 62\F,-3.84100717,-0.11295548,0.24858351\F,-1.93951881,2.45552072,0.988
 91343\F,-3.00591872,1.07093719,2.22745678\F,-0.40243396,1.21459414,2.7
 977252\F,-0.96515775,-0.6870485,2.02146754\F,-1.87033338,-0.43769074,-
 0.46466563\\Version=ES64L-G16RevA.03\State=1-A\HF=-909.1185965\RMSD=5.
 350e-09\RMSF=8.432e-03\Dipole=-0.011461,0.006505,0.0101885\Quadrupole=
 -0.0567582,-0.0647583,0.1215165,0.0180206,0.1066276,0.1597969\PG=C01 [
 X(C3F8)]\\@


 BREAD HAS TO MOLD IN ORDER TO GET PENICILLIN.
          -- JERRY BOATZ
 Job cpu time:       0 days  0 hours  0 minutes  7.6 seconds.
 Elapsed time:       0 days  0 hours  0 minutes  7.6 seconds.
 File lengths (MBytes):  RWF=     28 Int=      0 D2E=      0 Chk=      4 Scr=      2
 Normal termination of Gaussian 16 at Mon Sep 15 21:49:49 2025.
