 Entering Gaussian System, Link 0=g16
 Input=gauss.gjf
 Output=gauss.log
 Initial command:
 /software/Applications/gaussian/G16.A03.AVX/g16/l1.exe "/home/lbl8/code/hartree-fock_geomopt-rev-3/example/Gau-3214397.inp" -scrdir="/home/lbl8/code/hartree-fock_geomopt-rev-3/example/"
 Entering Link 1 = /software/Applications/gaussian/G16.A03.AVX/g16/l1.exe PID=   3214401.
  
 Copyright (c) 1988,1990,1992,1993,1995,1998,2003,2009,2016,
            Gaussian, Inc.  All Rights Reserved.
  
 This is part of the Gaussian(R) 16 program.  It is based on
 the Gaussian(R) 09 system (copyright 2009, Gaussian, Inc.),
 the Gaussian(R) 03 system (copyright 2003, Gaussian, Inc.),
 the Gaussian(R) 98 system (copyright 1998, Gaussian, Inc.),
 the Gaussian(R) 94 system (copyright 1995, Gaussian, Inc.),
 the Gaussian 92(TM) system (copyright 1992, Gaussian, Inc.),
 the Gaussian 90(TM) system (copyright 1990, Gaussian, Inc.),
 the Gaussian 88(TM) system (copyright 1988, Gaussian, Inc.),
 the Gaussian 86(TM) system (copyright 1986, Carnegie Mellon
 University), and the Gaussian 82(TM) system (copyright 1983,
 Carnegie Mellon University). Gaussian is a federally registered
 trademark of Gaussian, Inc.
  
 This software contains proprietary and confidential information,
 including trade secrets, belonging to Gaussian, Inc.
  
 This software is provided under written license and may be
 used, copied, transmitted, or stored only in accord with that
 written license.
  
 The following legend is applicable only to US Government
 contracts under FAR:
  
                    RESTRICTED RIGHTS LEGEND
  
 Use, reproduction and disclosure by the US Government is
 subject to restrictions as set forth in subparagraphs (a)
 and (c) of the Commercial Computer Software - Restricted
 Rights clause in FAR 52.227-19.
  
 Gaussian, Inc.
 340 Quinnipiac St., Bldg. 40, Wallingford CT 06492
  
  
 ---------------------------------------------------------------
 Warning -- This program may not be used in any manner that
 competes with the business of Gaussian, Inc. or will provide
 assistance to any competitor of Gaussian, Inc.  The licensee
 of this program is prohibited from giving any competitor of
 Gaussian, Inc. access to this program.  By using this program,
 the user acknowledges that Gaussian, Inc. is engaged in the
 business of creating and licensing software in the field of
 computational chemistry and represents and warrants to the
 licensee that it is not a competitor of Gaussian, Inc. and that
 it will not use this program in any manner prohibited above.
 ---------------------------------------------------------------
  

 Cite this work as:
 Gaussian 16, Revision A.03,
 M. J. Frisch, G. W. Trucks, H. B. Schlegel, G. E. Scuseria, 
 M. A. Robb, J. R. Cheeseman, G. Scalmani, V. Barone, 
 G. A. Petersson, H. Nakatsuji, X. Li, M. Caricato, A. V. Marenich, 
 J. Bloino, B. G. Janesko, R. Gomperts, B. Mennucci, H. P. Hratchian, 
 J. V. Ortiz, A. F. Izmaylov, J. L. Sonnenberg, D. Williams-Young, 
 F. Ding, F. Lipparini, F. Egidi, J. Goings, B. Peng, A. Petrone, 
 T. Henderson, D. Ranasinghe, V. G. Zakrzewski, J. Gao, N. Rega, 
 G. Zheng, W. Liang, M. Hada, M. Ehara, K. Toyota, R. Fukuda, 
 J. Hasegawa, M. Ishida, T. Nakajima, Y. Honda, O. Kitao, H. Nakai, 
 T. Vreven, K. Throssell, J. A. Montgomery, Jr., J. E. Peralta, 
 F. Ogliaro, M. J. Bearpark, J. J. Heyd, E. N. Brothers, K. N. Kudin, 
 V. N. Staroverov, T. A. Keith, R. Kobayashi, J. Normand, 
 K. Raghavachari, A. P. Rendell, J. C. Burant, S. S. Iyengar, 
 J. Tomasi, M. Cossi, J. M. Millam, M. Klene, C. Adamo, R. Cammi, 
 J. W. Ochterski, R. L. Martin, K. Morokuma, O. Farkas, 
 J. B. Foresman, and D. J. Fox, Gaussian, Inc., Wallingford CT, 2016.
 
 ******************************************
 Gaussian 16:  ES64L-G16RevA.03 25-Dec-2016
                15-Sep-2025 
 ******************************************
 %chk=gauss.chk
 -------------------
 # hf/6-31G(d) force
 -------------------
 1/10=7,30=1,38=1/1,3;
 2/12=2,17=6,18=5,40=1/2;
 3/5=1,6=6,7=1,11=9,25=1,30=1,71=1/1,2,3;
 4//1;
 5/5=2,38=5/2;
 6/7=2,8=2,9=2,10=2,28=1/1;
 7/29=1/1,2,3,16;
 1/10=7,30=1/3;
 99//99;
 -----------------
 Force calculation
 -----------------
 Symbolic Z-matrix:
 Charge =  0 Multiplicity = 1
 C                    -2.85242   1.84743   0.02377 
 C                    -1.71428   2.33645   0.89733 
 C                    -1.04873   2.98663   3.91344 
 C                    -0.67018   1.85135   2.97028 
 H                    -2.70918   0.80044  -0.21969 
 H                    -2.89992   2.41577  -0.89967 
 H                    -3.80013   1.95428   0.54094 
 H                    -1.8538    3.38685   1.1468 
 H                    -0.76664   2.25111   0.36505 
 H                    -1.96279   2.73732   4.44267 
 H                    -0.25973   3.14516   4.64369 
 H                    -1.2074    3.92426   3.3896 
 H                     0.25639   2.07919   2.44597 
 H                    -0.50328   0.94758   3.54401 
 O                    -1.68047   1.54742   2.0509 
 

 GradGradGradGradGradGradGradGradGradGradGradGradGradGradGradGradGradGrad
 Berny optimization.
 Initialization pass.
 Trust Radius=3.00D-01 FncErr=1.00D-07 GrdErr=1.00D-07 EigMax=2.50D+02 EigMin=1.00D-04
 Number of steps in this run=      2 maximum allowed number of steps=      2.
 GradGradGradGradGradGradGradGradGradGradGradGradGradGradGradGradGradGrad

                          Input orientation:                          
 ---------------------------------------------------------------------
 Center     Atomic      Atomic             Coordinates (Angstroms)
 Number     Number       Type             X           Y           Z
 ---------------------------------------------------------------------
      1          6           0       -2.852421    1.847434    0.023775
      2          6           0       -1.714279    2.336449    0.897328
      3          6           0       -1.048726    2.986635    3.913440
      4          6           0       -0.670181    1.851354    2.970277
      5          1           0       -2.709181    0.800439   -0.219690
      6          1           0       -2.899922    2.415768   -0.899668
      7          1           0       -3.800133    1.954281    0.540939
      8          1           0       -1.853797    3.386845    1.146803
      9          1           0       -0.766644    2.251114    0.365048
     10          1           0       -1.962789    2.737323    4.442668
     11          1           0       -0.259734    3.145164    4.643690
     12          1           0       -1.207400    3.924255    3.389604
     13          1           0        0.256393    2.079191    2.445968
     14          1           0       -0.503282    0.947585    3.544012
     15          8           0       -1.680469    1.547416    2.050901
 ---------------------------------------------------------------------
                    Distance matrix (angstroms):
                    1          2          3          4          5
     1  C    0.000000
     2  C    1.515783   0.000000
     3  C    4.436281   3.156364   0.000000
     4  C    3.666615   2.371197   1.523717   0.000000
     5  H    1.084431   2.144035   4.961786   3.929101   0.000000
     6  H    1.085360   2.154352   5.188335   4.501864   1.762963
     7  H    1.084911   2.150315   4.473227   3.963443   1.760705
     8  H    2.151332   1.088593   2.909053   2.661530   3.047701
     9  H    2.151719   1.090237   3.634783   2.637487   2.493958
    10  H    4.594559   3.576576   1.085242   2.150282   5.103548
    11  H    5.454333   4.099384   1.086695   2.154698   5.928743
    12  H    4.283467   2.998248   1.085686   2.182054   5.004056
    13  H    3.947843   2.519527   2.163391   1.088738   4.187550
    14  H    4.326691   3.224964   2.142828   1.083432   4.364985
    15  O    2.360662   1.398016   2.437109   1.399397   2.602270
                    6          7          8          9         10
     6  H    0.000000
     7  H    1.760311   0.000000
     8  H    2.495077   2.491493   0.000000
     9  H    2.485456   3.053048   1.755827   0.000000
    10  H    5.433431   4.383205   3.361025   4.277166   0.000000
    11  H    6.183157   5.548441   3.850671   4.400348   1.762708
    12  H    4.851599   4.326425   2.395161   3.484480   1.757375
    13  H    4.611821   4.483319   2.801909   2.325165   3.056913
    14  H    5.257921   4.571774   3.677023   3.445920   2.478085
    15  O    3.308619   2.634104   2.056924   2.042638   2.686286
                   11         12         13         14         15
    11  H    0.000000
    12  H    1.754362   0.000000
    13  H    2.496531   2.537203   0.000000
    14  H    2.469405   3.062710   1.750240   0.000000
    15  O    3.360631   2.768625   2.047022   1.993727   0.000000
 Stoichiometry    C4H10O
 Framework group  C1[X(C4H10O)]
 Deg. of freedom    39
 Full point group                 C1      NOp   1
 Largest Abelian subgroup         C1      NOp   1
 Largest concise Abelian subgroup C1      NOp   1
                         Standard orientation:                         
 ---------------------------------------------------------------------
 Center     Atomic      Atomic             Coordinates (Angstroms)
 Number     Number       Type             X           Y           Z
 ---------------------------------------------------------------------
      1          6           0        2.318322    0.190199   -0.213135
      2          6           0        0.969508    0.166855    0.478064
      3          6           0       -2.096840    0.613023   -0.122831
      4          6           0       -1.240541   -0.620744    0.134625
      5          1           0        2.643119   -0.822297   -0.426087
      6          1           0        3.063362    0.669719    0.413748
      7          1           0        2.255411    0.735731   -1.148800
      8          1           0        0.637212    1.181054    0.692574
      9          1           0        1.042309   -0.360229    1.429641
     10          1           0       -2.126703    0.825938   -1.186563
     11          1           0       -3.112675    0.442256    0.223326
     12          1           0       -1.717710    1.493513    0.386789
     13          1           0       -1.216959   -0.858160    1.196900
     14          1           0       -1.672973   -1.471973   -0.377465
     15          8           0        0.062864   -0.491444   -0.358051
 ---------------------------------------------------------------------
 Rotational constants (GHZ):          13.9811059           2.4662812           2.3523277
 Standard basis: 6-31G(d) (6D, 7F)
 There are    95 symmetry adapted cartesian basis functions of A   symmetry.
 There are    95 symmetry adapted basis functions of A   symmetry.
    95 basis functions,   180 primitive gaussians,    95 cartesian basis functions
    21 alpha electrons       21 beta electrons
       nuclear repulsion energy       192.5039741717 Hartrees.
 NAtoms=   15 NActive=   15 NUniq=   15 SFac= 1.00D+00 NAtFMM=   60 NAOKFM=F Big=F
 Integral buffers will be    131072 words long.
 Raffenetti 1 integral format.
 Two-electron integral symmetry is turned on.
 One-electron integrals computed using PRISM.
 NBasis=    95 RedAO= T EigKep=  4.87D-03  NBF=    95
 NBsUse=    95 1.00D-06 EigRej= -1.00D+00 NBFU=    95
 ExpMin= 1.61D-01 ExpMax= 5.48D+03 ExpMxC= 8.25D+02 IAcc=3 IRadAn=         5 AccDes= 0.00D+00
 Harris functional with IExCor=  205 and IRadAn=       5 diagonalized for initial guess.
 HarFok:  IExCor=  205 AccDes= 0.00D+00 IRadAn=         5 IDoV= 1 UseB2=F ITyADJ=14
 ICtDFT=  3500011 ScaDFX=  1.000000  1.000000  1.000000  1.000000
 FoFCou: FMM=F IPFlag=           0 FMFlag=      100000 FMFlg1=           0
         NFxFlg=           0 DoJE=T BraDBF=F KetDBF=T FulRan=T
         wScrn=  0.000000 ICntrl=       500 IOpCl=  0 I1Cent=   200000004 NGrid=           0
         NMat0=    1 NMatS0=      1 NMatT0=    0 NMatD0=    1 NMtDS0=    0 NMtDT0=    0
 Petite list used in FoFCou.
 Keep R1 ints in memory in canonical form, NReq=11281927.
 Requested convergence on RMS density matrix=1.00D-08 within 128 cycles.
 Requested convergence on MAX density matrix=1.00D-06.
 Requested convergence on             energy=1.00D-06.
 No special actions if energy rises.
 SCF Done:  E(RHF) =  -232.142169961     A.U. after   12 cycles
            NFock= 12  Conv=0.35D-08     -V/T= 2.0009

 **********************************************************************

            Population analysis using the SCF density.

 **********************************************************************

 Orbital symmetries:
       Occupied  (A) (A) (A) (A) (A) (A) (A) (A) (A) (A) (A) (A)
                 (A) (A) (A) (A) (A) (A) (A) (A) (A)
       Virtual   (A) (A) (A) (A) (A) (A) (A) (A) (A) (A) (A) (A)
                 (A) (A) (A) (A) (A) (A) (A) (A) (A) (A) (A) (A)
                 (A) (A) (A) (A) (A) (A) (A) (A) (A) (A) (A) (A)
                 (A) (A) (A) (A) (A) (A) (A) (A) (A) (A) (A) (A)
                 (A) (A) (A) (A) (A) (A) (A) (A) (A) (A) (A) (A)
                 (A) (A) (A) (A) (A) (A) (A) (A) (A) (A) (A) (A)
                 (A) (A)
 The electronic state is 1-A.
 Alpha  occ. eigenvalues --  -20.54990 -11.26821 -11.26798 -11.21085 -11.20843
 Alpha  occ. eigenvalues --   -1.37482  -1.04072  -0.98559  -0.86075  -0.81417
 Alpha  occ. eigenvalues --   -0.67226  -0.64669  -0.64438  -0.57414  -0.54996
 Alpha  occ. eigenvalues --   -0.54379  -0.52329  -0.50165  -0.48746  -0.45732
 Alpha  occ. eigenvalues --   -0.40747
 Alpha virt. eigenvalues --    0.23503   0.26126   0.28018   0.29323   0.31717
 Alpha virt. eigenvalues --    0.32163   0.32566   0.33959   0.34533   0.36173
 Alpha virt. eigenvalues --    0.38339   0.41480   0.43071   0.45991   0.70181
 Alpha virt. eigenvalues --    0.73604   0.75701   0.76633   0.77445   0.78769
 Alpha virt. eigenvalues --    0.84101   0.87676   0.91593   0.94734   0.97177
 Alpha virt. eigenvalues --    1.05688   1.10552   1.12995   1.14008   1.16859
 Alpha virt. eigenvalues --    1.18181   1.19053   1.19823   1.21584   1.22937
 Alpha virt. eigenvalues --    1.25082   1.27136   1.31761   1.40003   1.43660
 Alpha virt. eigenvalues --    1.56702   1.63877   1.70174   1.74138   1.75872
 Alpha virt. eigenvalues --    1.86500   1.98955   2.02637   2.09185   2.18513
 Alpha virt. eigenvalues --    2.23137   2.26669   2.28320   2.32588   2.44295
 Alpha virt. eigenvalues --    2.45128   2.51433   2.55447   2.58374   2.64851
 Alpha virt. eigenvalues --    2.65627   2.68572   2.76371   2.80380   2.86134
 Alpha virt. eigenvalues --    3.00120   3.04996   3.20197   3.34195   4.37742
 Alpha virt. eigenvalues --    4.61799   4.62294   4.82155   4.88741
          Condensed to atoms (all electrons):
               1          2          3          4          5          6
     1  C    5.094120   0.365813  -0.000165   0.004894   0.389849   0.383191
     2  C    0.365813   4.770286  -0.004407  -0.044845  -0.035740  -0.037012
     3  C   -0.000165  -0.004407   5.157487   0.343228   0.000010   0.000007
     4  C    0.004894  -0.044845   0.343228   4.767547  -0.000084  -0.000125
     5  H    0.389849  -0.035740   0.000010  -0.000084   0.523033  -0.025371
     6  H    0.383191  -0.037012   0.000007  -0.000125  -0.025371   0.548064
     7  H    0.390504  -0.035316   0.000005  -0.000226  -0.027163  -0.025895
     8  H   -0.043285   0.395310   0.002609  -0.000946   0.004875   0.000014
     9  H   -0.040885   0.398922  -0.000392  -0.008407  -0.005140  -0.000279
    10  H   -0.000035  -0.000048   0.389334  -0.035461   0.000001   0.000001
    11  H    0.000003   0.000055   0.377221  -0.033793  -0.000000  -0.000000
    12  H    0.000006   0.000895   0.389849  -0.032025  -0.000002   0.000001
    13  H   -0.000165  -0.009112  -0.054318   0.397619  -0.000006   0.000014
    14  H   -0.000117   0.005167  -0.049573   0.414757  -0.000017   0.000002
    15  O   -0.056591   0.209413  -0.052027   0.211717   0.001925   0.002967
               7          8          9         10         11         12
     1  C    0.390504  -0.043285  -0.040885  -0.000035   0.000003   0.000006
     2  C   -0.035316   0.395310   0.398922  -0.000048   0.000055   0.000895
     3  C    0.000005   0.002609  -0.000392   0.389334   0.377221   0.389849
     4  C   -0.000226  -0.000946  -0.008407  -0.035461  -0.033793  -0.032025
     5  H   -0.027163   0.004875  -0.005140   0.000001  -0.000000  -0.000002
     6  H   -0.025895   0.000014  -0.000279   0.000001  -0.000000   0.000001
     7  H    0.524611  -0.005233   0.004726   0.000007   0.000000   0.000008
     8  H   -0.005233   0.608175  -0.052142   0.000079  -0.000216  -0.000802
     9  H    0.004726  -0.052142   0.601838   0.000037   0.000040   0.000077
    10  H    0.000007   0.000079   0.000037   0.523811  -0.024952  -0.028326
    11  H    0.000000  -0.000216   0.000040  -0.024952   0.549857  -0.027391
    12  H    0.000008  -0.000802   0.000077  -0.028326  -0.027391   0.536677
    13  H    0.000023  -0.000914   0.008211   0.004647   0.000779  -0.003550
    14  H    0.000007  -0.000333   0.000094  -0.004089  -0.000466   0.003885
    15  O    0.001580  -0.043612  -0.042933   0.001148   0.003092  -0.000487
              13         14         15
     1  C   -0.000165  -0.000117  -0.056591
     2  C   -0.009112   0.005167   0.209413
     3  C   -0.054318  -0.049573  -0.052027
     4  C    0.397619   0.414757   0.211717
     5  H   -0.000006  -0.000017   0.001925
     6  H    0.000014   0.000002   0.002967
     7  H    0.000023   0.000007   0.001580
     8  H   -0.000914  -0.000333  -0.043612
     9  H    0.008211   0.000094  -0.042933
    10  H    0.004647  -0.004089   0.001148
    11  H    0.000779  -0.000466   0.003092
    12  H   -0.003550   0.003885  -0.000487
    13  H    0.593740  -0.034508  -0.038847
    14  H   -0.034508   0.534596  -0.038364
    15  O   -0.038847  -0.038364   8.461201
 Mulliken charges:
               1
     1  C   -0.487137
     2  C    0.020620
     3  C   -0.498868
     4  C    0.016149
     5  H    0.173830
     6  H    0.154422
     7  H    0.172362
     8  H    0.136421
     9  H    0.136234
    10  H    0.173847
    11  H    0.155771
    12  H    0.161184
    13  H    0.136387
    14  H    0.168958
    15  O   -0.620181
 Sum of Mulliken charges =  -0.00000
 Mulliken charges with hydrogens summed into heavy atoms:
               1
     1  C    0.013477
     2  C    0.293275
     3  C   -0.008066
     4  C    0.321495
    15  O   -0.620181
 Electronic spatial extent (au):  <R**2>=            588.0576
 Charge=             -0.0000 electrons
 Dipole moment (field-independent basis, Debye):
    X=             -0.3775    Y=              0.5121    Z=              1.1697  Tot=              1.3315
 Quadrupole moment (field-independent basis, Debye-Ang):
   XX=            -31.0552   YY=            -33.4245   ZZ=            -33.5825
   XY=              1.1632   XZ=              0.5051   YZ=             -0.4679
 Traceless Quadrupole moment (field-independent basis, Debye-Ang):
   XX=              1.6322   YY=             -0.7371   ZZ=             -0.8951
   XY=              1.1632   XZ=              0.5051   YZ=             -0.4679
 Octapole moment (field-independent basis, Debye-Ang**2):
  XXX=             -1.0159  YYY=             -2.4518  ZZZ=             -1.4588  XYY=             -0.0922
  XXY=             -2.7858  XXZ=              0.0115  XZZ=             -0.0445  YZZ=             -0.2593
  YYZ=             -0.2427  XYZ=             -0.1747
 Hexadecapole moment (field-independent basis, Debye-Ang**3):
 XXXX=           -614.8438 YYYY=           -106.8888 ZZZZ=            -78.5983 XXXY=              4.8821
 XXXZ=              0.9565 YYYX=              1.5414 YYYZ=              2.2634 ZZZX=              1.3005
 ZZZY=             -1.3859 XXYY=           -119.8291 XXZZ=           -115.0445 YYZZ=            -30.6004
 XXYZ=              1.7305 YYXZ=              0.3586 ZZXY=              1.1203
 N-N= 1.925039741717D+02 E-N=-9.280423726417D+02  KE= 2.319297504251D+02
 Calling FoFJK, ICntrl=      2127 FMM=F ISym2X=0 I1Cent= 0 IOpClX= 0 NMat=1 NMatS=1 NMatT=0.
 ***** Axes restored to original set *****
 -------------------------------------------------------------------
 Center     Atomic                   Forces (Hartrees/Bohr)
 Number     Number              X              Y              Z
 -------------------------------------------------------------------
      1        6          -0.000507169    0.000006108    0.000187057
      2        6           0.000518134   -0.000069688   -0.000239299
      3        6          -0.000195010    0.000107227    0.000340393
      4        6          -0.000121795    0.000069549    0.000153455
      5        1          -0.000661677    0.000242762   -0.000104448
      6        1           0.000291962    0.000182126   -0.000226800
      7        1           0.000484879   -0.000577941   -0.000111610
      8        1          -0.000027647   -0.000433073   -0.000152772
      9        1          -0.000353783    0.000455723    0.000199319
     10        1           0.000481184    0.000393480    0.000005168
     11        1          -0.000419494   -0.000079036   -0.000005717
     12        1           0.000327893   -0.000868357   -0.000358646
     13        1           0.000185972    0.000285993    0.000260735
     14        1           0.000042642    0.000035282   -0.000160710
     15        8          -0.000046090    0.000249845    0.000213875
 -------------------------------------------------------------------
 Cartesian Forces:  Max     0.000868357 RMS     0.000318229

 GradGradGradGradGradGradGradGradGradGradGradGradGradGradGradGradGradGrad
 Berny optimization.
 Search for a local minimum.
 Step number   1 out of a maximum of    2
 All quantities printed in internal units (Hartrees-Bohrs-Radians)
 Second derivative matrix not updated -- first step.
 ITU=  0
     Eigenvalues ---    0.00158   0.00276   0.00340   0.00688   0.01139
     Eigenvalues ---    0.01976   0.03431   0.04246   0.04734   0.05170
     Eigenvalues ---    0.05252   0.06012   0.07475   0.07614   0.09161
     Eigenvalues ---    0.09770   0.12365   0.13264   0.13514   0.13799
     Eigenvalues ---    0.14403   0.15304   0.16337   0.20039   0.22222
     Eigenvalues ---    0.29908   0.32120   0.53039   0.58182   0.77654
     Eigenvalues ---    0.79208   0.85560   0.88554   0.96529   1.00059
     Eigenvalues ---    1.02808   1.04076   1.14331   1.32490
 Angle between quadratic step and forces=  73.80 degrees.
 Linear search not attempted -- first point.
 B after Tr=    -0.000121   -0.001928    0.000381
         Rot=    1.000000    0.000055   -0.000076    0.000022 Ang=   0.01 deg.
 Variable       Old X    -DE/DX   Delta X   Delta X   Delta X     New X
                                 (Linear)    (Quad)   (Total)
    X1       -5.39029  -0.00051   0.00000  -0.00029  -0.00025  -5.39055
    Y1        3.49114   0.00001   0.00000  -0.00029  -0.00197   3.48917
    Z1        0.04493   0.00019   0.00000  -0.00131  -0.00049   0.04444
    X2       -3.23952   0.00052   0.00000  -0.00519  -0.00486  -3.24437
    Y2        4.41525  -0.00007   0.00000   0.00107  -0.00053   4.41472
    Z2        1.69570  -0.00024   0.00000   0.00707   0.00746   1.70317
    X3       -1.98181  -0.00020   0.00000   0.00333   0.00458  -1.97722
    Y3        5.64392   0.00011   0.00000   0.00407   0.00304   5.64696
    Z3        7.39533   0.00034   0.00000  -0.00987  -0.00980   7.38553
    X4       -1.26646  -0.00012   0.00000   0.00153   0.00241  -1.26405
    Y4        3.49855   0.00007   0.00000  -0.00852  -0.00978   3.48877
    Z4        5.61301   0.00015   0.00000   0.00668   0.00688   5.61989
    X5       -5.11961  -0.00066   0.00000   0.01077   0.01065  -5.10896
    Y5        1.51261   0.00024   0.00000   0.00969   0.00795   1.52056
    Z5       -0.41515  -0.00010   0.00000  -0.03399  -0.03300  -0.44816
    X6       -5.48006   0.00029   0.00000  -0.01272  -0.01289  -5.49294
    Y6        4.56514   0.00018   0.00000   0.02635   0.02449   4.58963
    Z6       -1.70013  -0.00023   0.00000   0.01481   0.01553  -1.68460
    X7       -7.18121   0.00048   0.00000   0.00155   0.00175  -7.17946
    Y7        3.69306  -0.00058   0.00000  -0.03675  -0.03824   3.65481
    Z7        1.02223  -0.00011   0.00000   0.00645   0.00752   1.02974
    X8       -3.50317  -0.00003   0.00000  -0.02507  -0.02457  -3.52774
    Y8        6.40021  -0.00043   0.00000  -0.00620  -0.00773   6.39248
    Z8        2.16714  -0.00015   0.00000   0.02096   0.02117   2.18832
    X9       -1.44875  -0.00035   0.00000  -0.00420  -0.00402  -1.45277
    Y9        4.25399   0.00046   0.00000   0.03082   0.02903   4.28302
    Z9        0.68984   0.00020   0.00000   0.00667   0.00680   0.69664
   X10       -3.70913   0.00048   0.00000  -0.01308  -0.01170  -3.72084
   Y10        5.17279   0.00039   0.00000   0.03551   0.03467   5.20746
   Z10        8.39543   0.00001   0.00000  -0.02627  -0.02589   8.36954
   X11       -0.49083  -0.00042   0.00000  -0.01154  -0.01006  -0.50089
   Y11        5.94350  -0.00008   0.00000  -0.00171  -0.00266   5.94084
   Z11        8.77530  -0.00001   0.00000   0.00610   0.00591   8.78121
   X12       -2.28165   0.00033   0.00000   0.03879   0.03996  -2.24169
   Y12        7.41577  -0.00087   0.00000  -0.00510  -0.00623   7.40953
   Z12        6.40542  -0.00036   0.00000  -0.03337  -0.03345   6.37197
   X13        0.48451   0.00019   0.00000   0.00866   0.00942   0.49393
   Y13        3.92910   0.00029   0.00000  -0.01392  -0.01536   3.91374
   Z13        4.62221   0.00026   0.00000   0.01640   0.01628   4.63849
   X14       -0.95106   0.00004   0.00000  -0.00769  -0.00671  -0.95778
   Y14        1.79068   0.00004   0.00000  -0.00565  -0.00680   1.78387
   Z14        6.69721  -0.00016   0.00000   0.01331   0.01364   6.71086
   X15       -3.17563  -0.00005   0.00000   0.00568   0.00628  -3.16935
   Y15        2.92419   0.00025   0.00000  -0.00850  -0.00986   2.91433
   Z15        3.87564   0.00021   0.00000   0.00092   0.00146   3.87710
         Item               Value     Threshold  Converged?
 Maximum Force            0.000868     0.000450     NO 
 RMS     Force            0.000318     0.000300     NO 
 Maximum Displacement     0.039965     0.001800     NO 
 RMS     Displacement     0.016387     0.001200     NO 
 Predicted change in Energy=-3.279264D-05
 GradGradGradGradGradGradGradGradGradGradGradGradGradGradGradGradGradGrad

 1\1\GINC-MU01\Force\RHF\6-31G(d)\C4H10O1\LBL8\15-Sep-2025\0\\# hf/6-31
 G(d) force\\Force calculation\\0,1\C,-2.85242124,1.84743359,0.02377465
 \C,-1.71427875,2.33644902,0.89732783\C,-1.0487262,2.98663486,3.9134396
 \C,-0.67018089,1.85135393,2.97027733\H,-2.7091812,0.80043936,-0.219689
 81\H,-2.89992177,2.41576799,-0.89966763\H,-3.80013313,1.95428146,0.540
 93856\H,-1.85379674,3.38684536,1.14680262\H,-0.76664389,2.2511144,0.36
 504768\H,-1.96278885,2.73732266,4.44266847\H,-0.25973422,3.14516379,4.
 64369044\H,-1.20739968,3.92425523,3.38960355\H,0.25639335,2.07919141,2
 .44596846\H,-0.50328186,0.94758475,3.54401185\O,-1.68046916,1.54741578
 ,2.05090138\\Version=ES64L-G16RevA.03\State=1-A\HF=-232.14217\RMSD=3.5
 25e-09\RMSF=3.182e-04\Dipole=0.3348698,0.3966688,-0.070297\Quadrupole=
 0.0360374,-1.0857702,1.0497328,-0.4807645,0.7713287,-0.3881888\PG=C01 
 [X(C4H10O1)]\\@


 IF IT HAPPENS, IT MUST BE POSSIBLE.

 -- THE UNNAMED LAW FROM PAUL DICKSON'S 
    "THE OFFICIAL RULES"
 Job cpu time:       0 days  0 hours  0 minutes  2.4 seconds.
 Elapsed time:       0 days  0 hours  0 minutes  2.4 seconds.
 File lengths (MBytes):  RWF=     22 Int=      0 D2E=      0 Chk=      3 Scr=      2
 Normal termination of Gaussian 16 at Mon Sep 15 21:32:41 2025.
