 Entering Gaussian System, Link 0=g16
 Input=gauss.gjf
 Output=gauss.log
 Initial command:
 /software/Applications/gaussian/G16.A03.AVX/g16/l1.exe "/home/lbl8/code/hartree-fock_geomopt-rev-3/example/Gau-3214729.inp" -scrdir="/home/lbl8/code/hartree-fock_geomopt-rev-3/example/"
 Entering Link 1 = /software/Applications/gaussian/G16.A03.AVX/g16/l1.exe PID=   3214731.
  
 Copyright (c) 1988,1990,1992,1993,1995,1998,2003,2009,2016,
            Gaussian, Inc.  All Rights Reserved.
  
 This is part of the Gaussian(R) 16 program.  It is based on
 the Gaussian(R) 09 system (copyright 2009, Gaussian, Inc.),
 the Gaussian(R) 03 system (copyright 2003, Gaussian, Inc.),
 the Gaussian(R) 98 system (copyright 1998, Gaussian, Inc.),
 the Gaussian(R) 94 system (copyright 1995, Gaussian, Inc.),
 the Gaussian 92(TM) system (copyright 1992, Gaussian, Inc.),
 the Gaussian 90(TM) system (copyright 1990, Gaussian, Inc.),
 the Gaussian 88(TM) system (copyright 1988, Gaussian, Inc.),
 the Gaussian 86(TM) system (copyright 1986, Carnegie Mellon
 University), and the Gaussian 82(TM) system (copyright 1983,
 Carnegie Mellon University). Gaussian is a federally registered
 trademark of Gaussian, Inc.
  
 This software contains proprietary and confidential information,
 including trade secrets, belonging to Gaussian, Inc.
  
 This software is provided under written license and may be
 used, copied, transmitted, or stored only in accord with that
 written license.
  
 The following legend is applicable only to US Government
 contracts under FAR:
  
                    RESTRICTED RIGHTS LEGEND
  
 Use, reproduction and disclosure by the US Government is
 subject to restrictions as set forth in subparagraphs (a)
 and (c) of the Commercial Computer Software - Restricted
 Rights clause in FAR 52.227-19.
  
 Gaussian, Inc.
 340 Quinnipiac St., Bldg. 40, Wallingford CT 06492
  
  
 ---------------------------------------------------------------
 Warning -- This program may not be used in any manner that
 competes with the business of Gaussian, Inc. or will provide
 assistance to any competitor of Gaussian, Inc.  The licensee
 of this program is prohibited from giving any competitor of
 Gaussian, Inc. access to this program.  By using this program,
 the user acknowledges that Gaussian, Inc. is engaged in the
 business of creating and licensing software in the field of
 computational chemistry and represents and warrants to the
 licensee that it is not a competitor of Gaussian, Inc. and that
 it will not use this program in any manner prohibited above.
 ---------------------------------------------------------------
  

 Cite this work as:
 Gaussian 16, Revision A.03,
 M. J. Frisch, G. W. Trucks, H. B. Schlegel, G. E. Scuseria, 
 M. A. Robb, J. R. Cheeseman, G. Scalmani, V. Barone, 
 G. A. Petersson, H. Nakatsuji, X. Li, M. Caricato, A. V. Marenich, 
 J. Bloino, B. G. Janesko, R. Gomperts, B. Mennucci, H. P. Hratchian, 
 J. V. Ortiz, A. F. Izmaylov, J. L. Sonnenberg, D. Williams-Young, 
 F. Ding, F. Lipparini, F. Egidi, J. Goings, B. Peng, A. Petrone, 
 T. Henderson, D. Ranasinghe, V. G. Zakrzewski, J. Gao, N. Rega, 
 G. Zheng, W. Liang, M. Hada, M. Ehara, K. Toyota, R. Fukuda, 
 J. Hasegawa, M. Ishida, T. Nakajima, Y. Honda, O. Kitao, H. Nakai, 
 T. Vreven, K. Throssell, J. A. Montgomery, Jr., J. E. Peralta, 
 F. Ogliaro, M. J. Bearpark, J. J. Heyd, E. N. Brothers, K. N. Kudin, 
 V. N. Staroverov, T. A. Keith, R. Kobayashi, J. Normand, 
 K. Raghavachari, A. P. Rendell, J. C. Burant, S. S. Iyengar, 
 J. Tomasi, M. Cossi, J. M. Millam, M. Klene, C. Adamo, R. Cammi, 
 J. W. Ochterski, R. L. Martin, K. Morokuma, O. Farkas, 
 J. B. Foresman, and D. J. Fox, Gaussian, Inc., Wallingford CT, 2016.
 
 ******************************************
 Gaussian 16:  ES64L-G16RevA.03 25-Dec-2016
                15-Sep-2025 
 ******************************************
 %chk=gauss.chk
 -------------------
 # hf/6-31G(d) force
 -------------------
 1/10=7,30=1,38=1/1,3;
 2/12=2,17=6,18=5,40=1/2;
 3/5=1,6=6,7=1,11=9,25=1,30=1,71=1/1,2,3;
 4//1;
 5/5=2,38=5/2;
 6/7=2,8=2,9=2,10=2,28=1/1;
 7/29=1/1,2,3,16;
 1/10=7,30=1/3;
 99//99;
 -----------------
 Force calculation
 -----------------
 Symbolic Z-matrix:
 Charge =  0 Multiplicity = 1
 C                    -2.84157   1.82746   0.00916 
 C                    -1.75717   2.36222   0.92455 
 C                    -1.0105    2.99899   3.90011 
 C                    -0.68365   1.83287   2.97584 
 H                    -2.62942   0.79957  -0.26163 
 H                    -2.90279   2.42032  -0.89847 
 H                    -3.80467   1.85625   0.50598 
 H                    -1.96978   3.39487   1.19313 
 H                    -0.79367   2.35123   0.41574 
 H                    -1.94992   2.8178    4.41098 
 H                    -0.23078   3.11372   4.64758 
 H                    -1.09291   3.93641   3.36039 
 H                     0.25101   2.01743   2.44796 
 H                    -0.55219   0.9318    3.56222 
 O                    -1.70455   1.5503    2.06155 
 

 GradGradGradGradGradGradGradGradGradGradGradGradGradGradGradGradGradGrad
 Berny optimization.
 Initialization pass.
 Trust Radius=3.00D-01 FncErr=1.00D-07 GrdErr=1.00D-07 EigMax=2.50D+02 EigMin=1.00D-04
 Number of steps in this run=      2 maximum allowed number of steps=      2.
 GradGradGradGradGradGradGradGradGradGradGradGradGradGradGradGradGradGrad

                          Input orientation:                          
 ---------------------------------------------------------------------
 Center     Atomic      Atomic             Coordinates (Angstroms)
 Number     Number       Type             X           Y           Z
 ---------------------------------------------------------------------
      1          6           0       -2.841570    1.827460    0.009157
      2          6           0       -1.757172    2.362218    0.924550
      3          6           0       -1.010498    2.998990    3.900111
      4          6           0       -0.683648    1.832873    2.975836
      5          1           0       -2.629423    0.799570   -0.261628
      6          1           0       -2.902789    2.420322   -0.898466
      7          1           0       -3.804675    1.856254    0.505982
      8          1           0       -1.969776    3.394874    1.193131
      9          1           0       -0.793669    2.351227    0.415739
     10          1           0       -1.949918    2.817800    4.410982
     11          1           0       -0.230780    3.113724    4.647582
     12          1           0       -1.092914    3.936413    3.360395
     13          1           0        0.251005    2.017432    2.447957
     14          1           0       -0.552192    0.931802    3.562223
     15          8           0       -1.704547    1.550296    2.061545
 ---------------------------------------------------------------------
                    Distance matrix (angstroms):
                    1          2          3          4          5
     1  C    0.000000
     2  C    1.516519   0.000000
     3  C    4.456998   3.133203   0.000000
     4  C    3.668493   2.374960   1.523464   0.000000
     5  H    1.083922   2.147024   4.977794   3.915984   0.000000
     6  H    1.085823   2.153880   5.190564   4.503321   1.762704
     7  H    1.084083   2.150225   4.542398   3.980143   1.756992
     8  H    2.149094   1.087987   2.899082   2.696667   3.047468
     9  H    2.152565   1.089655   3.550699   2.614363   2.497290
    10  H    4.599117   3.521351   1.084586   2.152478   5.135004
    11  H    5.475920   4.093361   1.086204   2.154160   5.933730
    12  H    4.328542   2.975343   1.084826   2.177214   5.031868
    13  H    3.943077   2.544095   2.159537   1.089172   4.137863
    14  H    4.320617   3.233479   2.144173   1.083079   4.353644
    15  O    2.362613   1.398121   2.441463   1.399290   2.610770
                    6          7          8          9         10
     6  H    0.000000
     7  H    1.761830   0.000000
     8  H    2.488984   2.491261   0.000000
     9  H    2.486019   3.052752   1.754071   0.000000
    10  H    5.408898   4.428738   3.269247   4.185280   0.000000
    11  H    6.195086   5.613093   3.877678   4.336675   1.760394
    12  H    4.869504   4.452907   2.399830   3.357583   1.757692
    13  H    4.615981   4.499531   2.898931   2.309258   3.055833
    14  H    5.257256   4.557836   3.699847   3.460266   2.496201
    15  O    3.309742   2.631335   2.055957   2.044472   2.680788
                   11         12         13         14         15
    11  H    0.000000
    12  H    1.754122   0.000000
    13  H    2.504461   2.514189   0.000000
    14  H    2.458067   3.059542   1.750802   0.000000
    15  O    3.362125   2.784718   2.047368   1.990601   0.000000
 Stoichiometry    C4H10O
 Framework group  C1[X(C4H10O)]
 Deg. of freedom    39
 Full point group                 C1      NOp   1
 Largest Abelian subgroup         C1      NOp   1
 Largest concise Abelian subgroup C1      NOp   1
                         Standard orientation:                         
 ---------------------------------------------------------------------
 Center     Atomic      Atomic             Coordinates (Angstroms)
 Number     Number       Type             X           Y           Z
 ---------------------------------------------------------------------
      1          6           0        2.331284    0.144501   -0.199801
      2          6           0        0.956631    0.251538    0.431630
      3          6           0       -2.102936    0.591941   -0.151581
      4          6           0       -1.237502   -0.619456    0.171662
      5          1           0        2.647945   -0.891586   -0.233529
      6          1           0        3.059833    0.712076    0.371237
      7          1           0        2.313051    0.527553   -1.213791
      8          1           0        0.641321    1.292211    0.467576
      9          1           0        0.982290   -0.115180    1.457401
     10          1           0       -2.108982    0.771029   -1.221263
     11          1           0       -3.125097    0.418517    0.172377
     12          1           0       -1.746950    1.490531    0.341021
     13          1           0       -1.214916   -0.793785    1.246554
     14          1           0       -1.662334   -1.501845   -0.290904
     15          8           0        0.066122   -0.515083   -0.326017
 ---------------------------------------------------------------------
 Rotational constants (GHZ):          14.1979992           2.4651998           2.3404724
 Standard basis: 6-31G(d) (6D, 7F)
 There are    95 symmetry adapted cartesian basis functions of A   symmetry.
 There are    95 symmetry adapted basis functions of A   symmetry.
    95 basis functions,   180 primitive gaussians,    95 cartesian basis functions
    21 alpha electrons       21 beta electrons
       nuclear repulsion energy       192.4963358864 Hartrees.
 NAtoms=   15 NActive=   15 NUniq=   15 SFac= 1.00D+00 NAtFMM=   60 NAOKFM=F Big=F
 Integral buffers will be    131072 words long.
 Raffenetti 1 integral format.
 Two-electron integral symmetry is turned on.
 One-electron integrals computed using PRISM.
 NBasis=    95 RedAO= T EigKep=  4.87D-03  NBF=    95
 NBsUse=    95 1.00D-06 EigRej= -1.00D+00 NBFU=    95
 ExpMin= 1.61D-01 ExpMax= 5.48D+03 ExpMxC= 8.25D+02 IAcc=3 IRadAn=         5 AccDes= 0.00D+00
 Harris functional with IExCor=  205 and IRadAn=       5 diagonalized for initial guess.
 HarFok:  IExCor=  205 AccDes= 0.00D+00 IRadAn=         5 IDoV= 1 UseB2=F ITyADJ=14
 ICtDFT=  3500011 ScaDFX=  1.000000  1.000000  1.000000  1.000000
 FoFCou: FMM=F IPFlag=           0 FMFlag=      100000 FMFlg1=           0
         NFxFlg=           0 DoJE=T BraDBF=F KetDBF=T FulRan=T
         wScrn=  0.000000 ICntrl=       500 IOpCl=  0 I1Cent=   200000004 NGrid=           0
         NMat0=    1 NMatS0=      1 NMatT0=    0 NMatD0=    1 NMtDS0=    0 NMtDT0=    0
 Petite list used in FoFCou.
 Keep R1 ints in memory in canonical form, NReq=11281927.
 Requested convergence on RMS density matrix=1.00D-08 within 128 cycles.
 Requested convergence on MAX density matrix=1.00D-06.
 Requested convergence on             energy=1.00D-06.
 No special actions if energy rises.
 SCF Done:  E(RHF) =  -232.142222353     A.U. after   12 cycles
            NFock= 12  Conv=0.35D-08     -V/T= 2.0009

 **********************************************************************

            Population analysis using the SCF density.

 **********************************************************************

 Orbital symmetries:
       Occupied  (A) (A) (A) (A) (A) (A) (A) (A) (A) (A) (A) (A)
                 (A) (A) (A) (A) (A) (A) (A) (A) (A)
       Virtual   (A) (A) (A) (A) (A) (A) (A) (A) (A) (A) (A) (A)
                 (A) (A) (A) (A) (A) (A) (A) (A) (A) (A) (A) (A)
                 (A) (A) (A) (A) (A) (A) (A) (A) (A) (A) (A) (A)
                 (A) (A) (A) (A) (A) (A) (A) (A) (A) (A) (A) (A)
                 (A) (A) (A) (A) (A) (A) (A) (A) (A) (A) (A) (A)
                 (A) (A) (A) (A) (A) (A) (A) (A) (A) (A) (A) (A)
                 (A) (A)
 The electronic state is 1-A.
 Alpha  occ. eigenvalues --  -20.55003 -11.26822 -11.26782 -11.21076 -11.20834
 Alpha  occ. eigenvalues --   -1.37464  -1.04071  -0.98598  -0.86201  -0.81300
 Alpha  occ. eigenvalues --   -0.67234  -0.64690  -0.64416  -0.57522  -0.54889
 Alpha  occ. eigenvalues --   -0.54436  -0.52374  -0.50246  -0.48689  -0.45675
 Alpha  occ. eigenvalues --   -0.40774
 Alpha virt. eigenvalues --    0.23502   0.26133   0.28097   0.29374   0.31580
 Alpha virt. eigenvalues --    0.32146   0.32779   0.33951   0.34495   0.36216
 Alpha virt. eigenvalues --    0.37956   0.41898   0.42801   0.46042   0.69792
 Alpha virt. eigenvalues --    0.73594   0.75502   0.76637   0.77440   0.79310
 Alpha virt. eigenvalues --    0.83883   0.87800   0.91460   0.94515   0.97292
 Alpha virt. eigenvalues --    1.06025   1.10748   1.13128   1.14081   1.16927
 Alpha virt. eigenvalues --    1.18113   1.19057   1.19842   1.21676   1.22793
 Alpha virt. eigenvalues --    1.25127   1.27074   1.31911   1.40369   1.43895
 Alpha virt. eigenvalues --    1.56436   1.63983   1.69947   1.74182   1.75441
 Alpha virt. eigenvalues --    1.86247   1.99398   2.02650   2.08613   2.18609
 Alpha virt. eigenvalues --    2.22903   2.26927   2.28382   2.32819   2.43702
 Alpha virt. eigenvalues --    2.44362   2.52257   2.55466   2.58424   2.64796
 Alpha virt. eigenvalues --    2.65760   2.68912   2.76534   2.79813   2.85832
 Alpha virt. eigenvalues --    3.00210   3.05127   3.20580   3.33988   4.37648
 Alpha virt. eigenvalues --    4.61974   4.62205   4.82238   4.88712
          Condensed to atoms (all electrons):
               1          2          3          4          5          6
     1  C    5.094309   0.365961  -0.000163   0.004679   0.389597   0.383127
     2  C    0.365961   4.770396  -0.004484  -0.045665  -0.035526  -0.037126
     3  C   -0.000163  -0.004484   5.161887   0.341962   0.000012   0.000008
     4  C    0.004679  -0.045665   0.341962   4.765094  -0.000080  -0.000121
     5  H    0.389597  -0.035526   0.000012  -0.000080   0.523865  -0.025325
     6  H    0.383127  -0.037126   0.000008  -0.000121  -0.025325   0.548233
     7  H    0.390754  -0.035184  -0.000005  -0.000197  -0.027542  -0.025708
     8  H   -0.044159   0.396247   0.002487  -0.000801   0.004863   0.000173
     9  H   -0.040458   0.397813  -0.000501  -0.008320  -0.005100  -0.000418
    10  H   -0.000043  -0.000086   0.388574  -0.035265   0.000001   0.000001
    11  H    0.000003   0.000067   0.378024  -0.033408  -0.000000  -0.000000
    12  H    0.000021   0.001007   0.390180  -0.032525  -0.000002   0.000001
    13  H   -0.000171  -0.009148  -0.055454   0.397767  -0.000011   0.000012
    14  H   -0.000106   0.005235  -0.049084   0.415206  -0.000018   0.000001
    15  O   -0.056295   0.209563  -0.052007   0.214662   0.002061   0.002961
               7          8          9         10         11         12
     1  C    0.390754  -0.044159  -0.040458  -0.000043   0.000003   0.000021
     2  C   -0.035184   0.396247   0.397813  -0.000086   0.000067   0.001007
     3  C   -0.000005   0.002487  -0.000501   0.388574   0.378024   0.390180
     4  C   -0.000197  -0.000801  -0.008320  -0.035265  -0.033408  -0.032525
     5  H   -0.027542   0.004863  -0.005100   0.000001  -0.000000  -0.000002
     6  H   -0.025708   0.000173  -0.000418   0.000001  -0.000000   0.000001
     7  H    0.523901  -0.005220   0.004721   0.000008   0.000000   0.000005
     8  H   -0.005220   0.607020  -0.052158   0.000067  -0.000186  -0.001018
     9  H    0.004721  -0.052158   0.602736   0.000059   0.000038   0.000081
    10  H    0.000008   0.000067   0.000059   0.523318  -0.024831  -0.028297
    11  H    0.000000  -0.000186   0.000038  -0.024831   0.547703  -0.027408
    12  H    0.000005  -0.001018   0.000081  -0.028297  -0.027408   0.537391
    13  H    0.000023  -0.000875   0.008911   0.004699   0.000918  -0.003847
    14  H    0.000006  -0.000332   0.000048  -0.003756  -0.000830   0.003906
    15  O    0.001461  -0.043584  -0.042734   0.001308   0.003030  -0.000481
              13         14         15
     1  C   -0.000171  -0.000106  -0.056295
     2  C   -0.009148   0.005235   0.209563
     3  C   -0.055454  -0.049084  -0.052007
     4  C    0.397767   0.415206   0.214662
     5  H   -0.000011  -0.000018   0.002061
     6  H    0.000012   0.000001   0.002961
     7  H    0.000023   0.000006   0.001461
     8  H   -0.000875  -0.000332  -0.043584
     9  H    0.008911   0.000048  -0.042734
    10  H    0.004699  -0.003756   0.001308
    11  H    0.000918  -0.000830   0.003030
    12  H   -0.003847   0.003906  -0.000481
    13  H    0.594766  -0.034322  -0.039478
    14  H   -0.034322   0.533159  -0.038530
    15  O   -0.039478  -0.038530   8.458381
 Mulliken charges:
               1
     1  C   -0.487054
     2  C    0.020931
     3  C   -0.501435
     4  C    0.017014
     5  H    0.173206
     6  H    0.154181
     7  H    0.172978
     8  H    0.137476
     9  H    0.135282
    10  H    0.174243
    11  H    0.156880
    12  H    0.160986
    13  H    0.136211
    14  H    0.169418
    15  O   -0.620317
 Sum of Mulliken charges =  -0.00000
 Mulliken charges with hydrogens summed into heavy atoms:
               1
     1  C    0.013311
     2  C    0.293689
     3  C   -0.009326
     4  C    0.322643
    15  O   -0.620317
 Electronic spatial extent (au):  <R**2>=            588.7236
 Charge=              0.0000 electrons
 Dipole moment (field-independent basis, Debye):
    X=             -0.3981    Y=              0.6250    Z=              1.1029  Tot=              1.3287
 Quadrupole moment (field-independent basis, Debye-Ang):
   XX=            -31.0660   YY=            -33.4978   ZZ=            -33.5026
   XY=              1.2661   XZ=              0.4035   YZ=             -0.4704
 Traceless Quadrupole moment (field-independent basis, Debye-Ang):
   XX=              1.6228   YY=             -0.8090   ZZ=             -0.8138
   XY=              1.2661   XZ=              0.4035   YZ=             -0.4704
 Octapole moment (field-independent basis, Debye-Ang**2):
  XXX=             -1.1968  YYY=             -2.5330  ZZZ=             -1.4558  XYY=             -0.1469
  XXY=             -2.7393  XXZ=              0.0814  XZZ=              0.0400  YZZ=             -0.2827
  YYZ=             -0.0766  XYZ=             -0.1752
 Hexadecapole moment (field-independent basis, Debye-Ang**3):
 XXXX=           -617.3771 YYYY=           -106.5579 ZZZZ=            -75.6773 XXXY=              5.3788
 XXXZ=              0.5841 YYYX=              1.6822 YYYZ=              2.2330 ZZZX=              0.6719
 ZZZY=             -1.2978 XXYY=           -119.9811 XXZZ=           -115.4356 YYZZ=            -30.9533
 XXYZ=              1.5245 YYXZ=              0.7232 ZZXY=              1.1505
 N-N= 1.924963358864D+02 E-N=-9.280281316212D+02  KE= 2.319328985479D+02
 Calling FoFJK, ICntrl=      2127 FMM=F ISym2X=0 I1Cent= 0 IOpClX= 0 NMat=1 NMatS=1 NMatT=0.
 ***** Axes restored to original set *****
 -------------------------------------------------------------------
 Center     Atomic                   Forces (Hartrees/Bohr)
 Number     Number              X              Y              Z
 -------------------------------------------------------------------
      1        6           0.000109931    0.000039505    0.000079555
      2        6          -0.000052914    0.000114936    0.000003365
      3        6          -0.000165209   -0.000063072   -0.000064402
      4        6           0.000044458   -0.000013017    0.000026773
      5        1          -0.000101601   -0.000107677   -0.000183992
      6        1          -0.000001130    0.000052638    0.000120292
      7        1          -0.000051815   -0.000040142    0.000049080
      8        1           0.000025034   -0.000043361   -0.000004621
      9        1           0.000008597   -0.000016080    0.000038940
     10        1          -0.000024363    0.000060003    0.000035859
     11        1           0.000033417    0.000098308   -0.000103657
     12        1           0.000021352   -0.000023511   -0.000004625
     13        1           0.000037919   -0.000047471    0.000114836
     14        1          -0.000027413   -0.000045447   -0.000022443
     15        8           0.000143737    0.000034390   -0.000084961
 -------------------------------------------------------------------
 Cartesian Forces:  Max     0.000183992 RMS     0.000072368

 GradGradGradGradGradGradGradGradGradGradGradGradGradGradGradGradGradGrad
 Berny optimization.
 Search for a local minimum.
 Step number   1 out of a maximum of    2
 All quantities printed in internal units (Hartrees-Bohrs-Radians)
 Second derivative matrix not updated -- first step.
 ITU=  0
     Eigenvalues ---    0.00157   0.00280   0.00342   0.00668   0.01165
     Eigenvalues ---    0.01906   0.03509   0.04255   0.04732   0.05169
     Eigenvalues ---    0.05254   0.06031   0.07469   0.07623   0.09172
     Eigenvalues ---    0.09771   0.12317   0.13267   0.13531   0.13810
     Eigenvalues ---    0.14399   0.15346   0.16355   0.20100   0.22220
     Eigenvalues ---    0.29892   0.32153   0.53171   0.58327   0.77815
     Eigenvalues ---    0.79155   0.85571   0.88744   0.96441   1.00213
     Eigenvalues ---    1.02750   1.04066   1.14377   1.32723
 Angle between quadratic step and forces=  63.42 degrees.
 Linear search not attempted -- first point.
 B after Tr=     0.001211   -0.000981   -0.000082
         Rot=    1.000000   -0.000009    0.000016   -0.000031 Ang=  -0.00 deg.
 Variable       Old X    -DE/DX   Delta X   Delta X   Delta X     New X
                                 (Linear)    (Quad)   (Total)
    X1       -5.36979   0.00011   0.00000  -0.00059   0.00041  -5.36938
    Y1        3.45340   0.00004   0.00000   0.00549   0.00417   3.45757
    Z1        0.01730   0.00008   0.00000   0.00421   0.00402   0.02132
    X2       -3.32057  -0.00005   0.00000   0.00430   0.00517  -3.31540
    Y2        4.46394   0.00011   0.00000  -0.00312  -0.00434   4.45960
    Z2        1.74715   0.00000   0.00000   0.00352   0.00341   1.75056
    X3       -1.90957  -0.00017   0.00000  -0.00568  -0.00506  -1.91462
    Y3        5.66727  -0.00006   0.00000   0.00297   0.00173   5.66900
    Z3        7.37014  -0.00006   0.00000  -0.01034  -0.01038   7.35976
    X4       -1.29191   0.00004   0.00000   0.00147   0.00228  -1.28963
    Y4        3.46363  -0.00001   0.00000  -0.00597  -0.00714   3.45649
    Z4        5.62352   0.00003   0.00000   0.00347   0.00341   5.62692
    X5       -4.96889  -0.00010   0.00000   0.00066   0.00179  -4.96710
    Y5        1.51097  -0.00011   0.00000   0.01149   0.01021   1.52118
    Z5       -0.49441  -0.00018   0.00000  -0.01905  -0.01927  -0.51367
    X6       -5.48548  -0.00000   0.00000  -0.01254  -0.01156  -5.49704
    Y6        4.57375   0.00005   0.00000   0.02335   0.02205   4.59580
    Z6       -1.69785   0.00012   0.00000   0.01692   0.01675  -1.68110
    X7       -7.18979  -0.00005   0.00000   0.00383   0.00479  -7.18501
    Y7        3.50781  -0.00004   0.00000  -0.00871  -0.01016   3.49765
    Z7        0.95617   0.00005   0.00000   0.01400   0.01375   0.96992
    X8       -3.72234   0.00003   0.00000   0.00463   0.00537  -3.71697
    Y8        6.41538  -0.00004   0.00000  -0.00551  -0.00677   6.40862
    Z8        2.25469  -0.00000   0.00000   0.01243   0.01235   2.26704
    X9       -1.49982   0.00001   0.00000   0.00281   0.00372  -1.49610
    Y9        4.44317  -0.00002   0.00000   0.00155   0.00046   4.44363
    Z9        0.78563   0.00004   0.00000   0.00066   0.00062   0.78625
   X10       -3.68481  -0.00002   0.00000  -0.00549  -0.00488  -3.68969
   Y10        5.32487   0.00006   0.00000   0.00616   0.00479   5.32966
   Z10        8.33555   0.00004   0.00000  -0.00869  -0.00880   8.32675
   X11       -0.43611   0.00003   0.00000  -0.00623  -0.00566  -0.44177
   Y11        5.88409   0.00010   0.00000   0.01709   0.01592   5.90000
   Z11        8.78266  -0.00010   0.00000  -0.01209  -0.01207   8.77058
   X12       -2.06531   0.00002   0.00000  -0.00888  -0.00833  -2.07364
   Y12        7.43874  -0.00002   0.00000  -0.00433  -0.00556   7.43319
   Z12        6.35023  -0.00000   0.00000  -0.02241  -0.02243   6.32780
   X13        0.47433   0.00004   0.00000   0.00574   0.00656   0.48089
   Y13        3.81239  -0.00005   0.00000  -0.01011  -0.01114   3.80125
   Z13        4.62597   0.00011   0.00000   0.00977   0.00977   4.63574
   X14       -1.04349  -0.00003   0.00000  -0.00353  -0.00265  -1.04614
   Y14        1.76085  -0.00005   0.00000  -0.00216  -0.00333   1.75752
   Z14        6.73163  -0.00002   0.00000   0.01057   0.01048   6.74211
   X15       -3.22113   0.00014   0.00000   0.00715   0.00805  -3.21308
   Y15        2.92964   0.00003   0.00000  -0.00964  -0.01089   2.91874
   Z15        3.89576  -0.00008   0.00000  -0.00149  -0.00162   3.89414
         Item               Value     Threshold  Converged?
 Maximum Force            0.000184     0.000450     YES
 RMS     Force            0.000072     0.000300     YES
 Maximum Displacement     0.022426     0.001800     NO 
 RMS     Displacement     0.009388     0.001200     NO 
 Predicted change in Energy=-6.868333D-06
 GradGradGradGradGradGradGradGradGradGradGradGradGradGradGradGradGradGrad

 1\1\GINC-MU01\Force\RHF\6-31G(d)\C4H10O1\LBL8\15-Sep-2025\0\\# hf/6-31
 G(d) force\\Force calculation\\0,1\C,-2.84156954,1.82745993,0.00915655
 \C,-1.75717158,2.36221784,0.92455013\C,-1.01049845,2.99898964,3.900110
 86\C,-0.68364782,1.83287311,2.97583629\H,-2.62942335,0.79957017,-0.261
 62824\H,-2.90278879,2.42032166,-0.89846556\H,-3.80467483,1.8562538,0.5
 0598205\H,-1.9697755,3.3948741,1.19313061\H,-0.79366912,2.3512267,0.41
 57385\H,-1.94991776,2.81780024,4.41098167\H,-0.23077952,3.11372405,4.6
 4758244\H,-1.09291417,3.93641259,3.36039472\H,0.25100512,2.01743205,2.
 44795667\H,-0.55219224,0.93180191,3.56222325\O,-1.70454702,1.55029622,
 2.061545\\Version=ES64L-G16RevA.03\State=1-A\HF=-232.1422224\RMSD=3.50
 4e-09\RMSF=7.237e-05\Dipole=0.3345609,0.3964196,-0.0646516\Quadrupole=
 0.0448624,-1.088604,1.0437416,-0.5057997,0.7886777,-0.4172376\PG=C01 [
 X(C4H10O1)]\\@


 NOTHING WILL BE ATTEMPTED IF ALL POSSIBLE OBJECTIONS
 MUST FIRST BE OVERCOME.

                               -- THE GOLDEN PRINCIPLE,
                    PAUL DICKSON'S "THE OFFICIAL RULES"
 Job cpu time:       0 days  0 hours  0 minutes  2.4 seconds.
 Elapsed time:       0 days  0 hours  0 minutes  2.4 seconds.
 File lengths (MBytes):  RWF=     22 Int=      0 D2E=      0 Chk=      3 Scr=      2
 Normal termination of Gaussian 16 at Mon Sep 15 21:33:12 2025.
