 Entering Gaussian System, Link 0=g16
 Input=gauss.gjf
 Output=gauss.log
 Initial command:
 /software/Applications/gaussian/G16.A03.AVX/g16/l1.exe "/home/lbl8/code/hartree-fock_geomopt-rev-3/example/Gau-3232441.inp" -scrdir="/home/lbl8/code/hartree-fock_geomopt-rev-3/example/"
 Entering Link 1 = /software/Applications/gaussian/G16.A03.AVX/g16/l1.exe PID=   3232443.
  
 Copyright (c) 1988,1990,1992,1993,1995,1998,2003,2009,2016,
            Gaussian, Inc.  All Rights Reserved.
  
 This is part of the Gaussian(R) 16 program.  It is based on
 the Gaussian(R) 09 system (copyright 2009, Gaussian, Inc.),
 the Gaussian(R) 03 system (copyright 2003, Gaussian, Inc.),
 the Gaussian(R) 98 system (copyright 1998, Gaussian, Inc.),
 the Gaussian(R) 94 system (copyright 1995, Gaussian, Inc.),
 the Gaussian 92(TM) system (copyright 1992, Gaussian, Inc.),
 the Gaussian 90(TM) system (copyright 1990, Gaussian, Inc.),
 the Gaussian 88(TM) system (copyright 1988, Gaussian, Inc.),
 the Gaussian 86(TM) system (copyright 1986, Carnegie Mellon
 University), and the Gaussian 82(TM) system (copyright 1983,
 Carnegie Mellon University). Gaussian is a federally registered
 trademark of Gaussian, Inc.
  
 This software contains proprietary and confidential information,
 including trade secrets, belonging to Gaussian, Inc.
  
 This software is provided under written license and may be
 used, copied, transmitted, or stored only in accord with that
 written license.
  
 The following legend is applicable only to US Government
 contracts under FAR:
  
                    RESTRICTED RIGHTS LEGEND
  
 Use, reproduction and disclosure by the US Government is
 subject to restrictions as set forth in subparagraphs (a)
 and (c) of the Commercial Computer Software - Restricted
 Rights clause in FAR 52.227-19.
  
 Gaussian, Inc.
 340 Quinnipiac St., Bldg. 40, Wallingford CT 06492
  
  
 ---------------------------------------------------------------
 Warning -- This program may not be used in any manner that
 competes with the business of Gaussian, Inc. or will provide
 assistance to any competitor of Gaussian, Inc.  The licensee
 of this program is prohibited from giving any competitor of
 Gaussian, Inc. access to this program.  By using this program,
 the user acknowledges that Gaussian, Inc. is engaged in the
 business of creating and licensing software in the field of
 computational chemistry and represents and warrants to the
 licensee that it is not a competitor of Gaussian, Inc. and that
 it will not use this program in any manner prohibited above.
 ---------------------------------------------------------------
  

 Cite this work as:
 Gaussian 16, Revision A.03,
 M. J. Frisch, G. W. Trucks, H. B. Schlegel, G. E. Scuseria, 
 M. A. Robb, J. R. Cheeseman, G. Scalmani, V. Barone, 
 G. A. Petersson, H. Nakatsuji, X. Li, M. Caricato, A. V. Marenich, 
 J. Bloino, B. G. Janesko, R. Gomperts, B. Mennucci, H. P. Hratchian, 
 J. V. Ortiz, A. F. Izmaylov, J. L. Sonnenberg, D. Williams-Young, 
 F. Ding, F. Lipparini, F. Egidi, J. Goings, B. Peng, A. Petrone, 
 T. Henderson, D. Ranasinghe, V. G. Zakrzewski, J. Gao, N. Rega, 
 G. Zheng, W. Liang, M. Hada, M. Ehara, K. Toyota, R. Fukuda, 
 J. Hasegawa, M. Ishida, T. Nakajima, Y. Honda, O. Kitao, H. Nakai, 
 T. Vreven, K. Throssell, J. A. Montgomery, Jr., J. E. Peralta, 
 F. Ogliaro, M. J. Bearpark, J. J. Heyd, E. N. Brothers, K. N. Kudin, 
 V. N. Staroverov, T. A. Keith, R. Kobayashi, J. Normand, 
 K. Raghavachari, A. P. Rendell, J. C. Burant, S. S. Iyengar, 
 J. Tomasi, M. Cossi, J. M. Millam, M. Klene, C. Adamo, R. Cammi, 
 J. W. Ochterski, R. L. Martin, K. Morokuma, O. Farkas, 
 J. B. Foresman, and D. J. Fox, Gaussian, Inc., Wallingford CT, 2016.
 
 ******************************************
 Gaussian 16:  ES64L-G16RevA.03 25-Dec-2016
                15-Sep-2025 
 ******************************************
 %chk=gauss.chk
 -------------------
 # hf/6-31G(d) force
 -------------------
 1/10=7,30=1,38=1/1,3;
 2/12=2,17=6,18=5,40=1/2;
 3/5=1,6=6,7=1,11=9,25=1,30=1,71=1/1,2,3;
 4//1;
 5/5=2,38=5/2;
 6/7=2,8=2,9=2,10=2,28=1/1;
 7/29=1/1,2,3,16;
 1/10=7,30=1/3;
 99//99;
 -----------------
 Force calculation
 -----------------
 Symbolic Z-matrix:
 Charge =  0 Multiplicity = 1
 C                    -2.66805   0.50196  -0.06024 
 C                    -2.04125   1.22689   1.13432 
 C                    -0.89838   0.49401   1.84329 
 F                     0.09797   0.28645   1.01571 
 F                    -3.60682   1.26174  -0.57011 
 F                    -3.20031  -0.63489   0.32285 
 F                    -1.57137   2.391     0.7064 
 F                    -3.00247   1.44221   2.02315 
 F                    -0.47597   1.23211   2.8402 
 F                    -1.31155  -0.65997   2.3111 
 F                    -1.76638   0.26096  -0.98179 
 

 GradGradGradGradGradGradGradGradGradGradGradGradGradGradGradGradGradGrad
 Berny optimization.
 Initialization pass.
 Trust Radius=3.00D-01 FncErr=1.00D-07 GrdErr=1.00D-07 EigMax=2.50D+02 EigMin=1.00D-04
 Number of steps in this run=      2 maximum allowed number of steps=      2.
 GradGradGradGradGradGradGradGradGradGradGradGradGradGradGradGradGradGrad

                          Input orientation:                          
 ---------------------------------------------------------------------
 Center     Atomic      Atomic             Coordinates (Angstroms)
 Number     Number       Type             X           Y           Z
 ---------------------------------------------------------------------
      1          6           0       -2.668051    0.501956   -0.060235
      2          6           0       -2.041251    1.226894    1.134323
      3          6           0       -0.898377    0.494014    1.843288
      4          9           0        0.097973    0.286450    1.015712
      5          9           0       -3.606821    1.261740   -0.570114
      6          9           0       -3.200312   -0.634887    0.322847
      7          9           0       -1.571366    2.390999    0.706402
      8          9           0       -3.002471    1.442210    2.023153
      9          9           0       -0.475973    1.232109    2.840196
     10          9           0       -1.311548   -0.659970    2.311100
     11          9           0       -1.766382    0.260964   -0.981791
 ---------------------------------------------------------------------
                    Distance matrix (angstroms):
                    1          2          3          4          5
     1  C    0.000000
     2  C    1.531464   0.000000
     3  C    2.599079   1.531634   0.000000
     4  F    2.975734   2.339825   1.311746   0.000000
     5  F    1.310929   2.314590   3.708042   4.146267   0.000000
     6  F    1.312428   2.338406   2.980782   3.493938   2.135374
     7  F    2.314937   1.326291   2.311704   2.703977   2.654768
     8  F    2.310069   1.326772   2.314873   3.458825   2.668865
     9  F    3.708211   2.315194   1.310356   2.133642   4.629611
    10  F    2.968737   2.340411   1.311959   2.135530   4.154833
    11  F    1.311621   2.342331   2.964594   2.732487   2.135005
                    6          7          8          9         10
     6  F    0.000000
     7  F    3.457826   0.000000
     8  F    2.691564   2.163814   0.000000
     9  F    4.152679   2.663830   2.663624   0.000000
    10  F    2.742482   3.457017   2.713170   2.134968   0.000000
    11  F    2.135600   2.724899   3.457304   4.149200   3.449366
                   11
    11  F    0.000000
 Stoichiometry    C3F8
 Framework group  C1[X(C3F8)]
 Deg. of freedom    27
 Full point group                 C1      NOp   1
 Largest Abelian subgroup         C1      NOp   1
 Largest concise Abelian subgroup C1      NOp   1
                         Standard orientation:                         
 ---------------------------------------------------------------------
 Center     Atomic      Atomic             Coordinates (Angstroms)
 Number     Number       Type             X           Y           Z
 ---------------------------------------------------------------------
      1          6           0       -1.299285   -0.232169   -0.001889
      2          6           0       -0.000096    0.578688   -0.000596
      3          6           0        1.299792   -0.231369    0.000561
      4          9           0        1.373965   -0.983074   -1.071875
      5          9           0       -2.314459    0.596869   -0.027444
      6          9           0       -1.378450   -0.970521    1.080255
      7          9           0        0.003663    1.347952   -1.080997
      8          9           0       -0.005527    1.344558    1.082795
      9          9           0        2.315002    0.597062    0.009814
     10          9           0        1.363848   -0.997607    1.063582
     11          9           0       -1.358316   -1.012007   -1.054847
 ---------------------------------------------------------------------
 Rotational constants (GHZ):           1.7221715           0.9764021           0.9208670
 Standard basis: 6-31G(d) (6D, 7F)
 There are   165 symmetry adapted cartesian basis functions of A   symmetry.
 There are   165 symmetry adapted basis functions of A   symmetry.
   165 basis functions,   308 primitive gaussians,   165 cartesian basis functions
    45 alpha electrons       45 beta electrons
       nuclear repulsion energy       806.9595621742 Hartrees.
 NAtoms=   11 NActive=   11 NUniq=   11 SFac= 1.00D+00 NAtFMM=   60 NAOKFM=F Big=F
 Integral buffers will be    131072 words long.
 Raffenetti 1 integral format.
 Two-electron integral symmetry is turned on.
 One-electron integrals computed using PRISM.
 NBasis=   165 RedAO= T EigKep=  1.55D-03  NBF=   165
 NBsUse=   165 1.00D-06 EigRej= -1.00D+00 NBFU=   165
 ExpMin= 1.69D-01 ExpMax= 7.00D+03 ExpMxC= 1.05D+03 IAcc=3 IRadAn=         5 AccDes= 0.00D+00
 Harris functional with IExCor=  205 and IRadAn=       5 diagonalized for initial guess.
 HarFok:  IExCor=  205 AccDes= 0.00D+00 IRadAn=         5 IDoV= 1 UseB2=F ITyADJ=14
 ICtDFT=  3500011 ScaDFX=  1.000000  1.000000  1.000000  1.000000
 FoFCou: FMM=F IPFlag=           0 FMFlag=      100000 FMFlg1=           0
         NFxFlg=           0 DoJE=T BraDBF=F KetDBF=T FulRan=T
         wScrn=  0.000000 ICntrl=       500 IOpCl=  0 I1Cent=   200000004 NGrid=           0
         NMat0=    1 NMatS0=      1 NMatT0=    0 NMatD0=    1 NMtDS0=    0 NMtDT0=    0
 Petite list used in FoFCou.
 Keep R1 ints in memory in canonical form, NReq=96071382.
 Requested convergence on RMS density matrix=1.00D-08 within 128 cycles.
 Requested convergence on MAX density matrix=1.00D-06.
 Requested convergence on             energy=1.00D-06.
 No special actions if energy rises.
 SCF Done:  E(RHF) =  -909.125499299     A.U. after   11 cycles
            NFock= 11  Conv=0.52D-08     -V/T= 2.0019

 **********************************************************************

            Population analysis using the SCF density.

 **********************************************************************

 Orbital symmetries:
       Occupied  (A) (A) (A) (A) (A) (A) (A) (A) (A) (A) (A) (A)
                 (A) (A) (A) (A) (A) (A) (A) (A) (A) (A) (A) (A)
                 (A) (A) (A) (A) (A) (A) (A) (A) (A) (A) (A) (A)
                 (A) (A) (A) (A) (A) (A) (A) (A) (A)
       Virtual   (A) (A) (A) (A) (A) (A) (A) (A) (A) (A) (A) (A)
                 (A) (A) (A) (A) (A) (A) (A) (A) (A) (A) (A) (A)
                 (A) (A) (A) (A) (A) (A) (A) (A) (A) (A) (A) (A)
                 (A) (A) (A) (A) (A) (A) (A) (A) (A) (A) (A) (A)
                 (A) (A) (A) (A) (A) (A) (A) (A) (A) (A) (A) (A)
                 (A) (A) (A) (A) (A) (A) (A) (A) (A) (A) (A) (A)
                 (A) (A) (A) (A) (A) (A) (A) (A) (A) (A) (A) (A)
                 (A) (A) (A) (A) (A) (A) (A) (A) (A) (A) (A) (A)
                 (A) (A) (A) (A) (A) (A) (A) (A) (A) (A) (A) (A)
                 (A) (A) (A) (A) (A) (A) (A) (A) (A) (A) (A) (A)
 The electronic state is 1-A.
 Alpha  occ. eigenvalues --  -26.37919 -26.37895 -26.37876 -26.37852 -26.37733
 Alpha  occ. eigenvalues --  -26.37722 -26.37498 -26.37473 -11.54728 -11.54727
 Alpha  occ. eigenvalues --  -11.47902  -1.78937  -1.77890  -1.73173  -1.68394
 Alpha  occ. eigenvalues --   -1.67750  -1.67575  -1.67548  -1.66402  -1.12516
 Alpha  occ. eigenvalues --   -1.02812  -0.95736  -0.90824  -0.88820  -0.87821
 Alpha  occ. eigenvalues --   -0.86544  -0.85673  -0.85524  -0.81566  -0.76144
 Alpha  occ. eigenvalues --   -0.75264  -0.74828  -0.73611  -0.73441  -0.73118
 Alpha  occ. eigenvalues --   -0.72348  -0.70297  -0.70169  -0.68546  -0.68537
 Alpha  occ. eigenvalues --   -0.68408  -0.67432  -0.67259  -0.63279  -0.56014
 Alpha virt. eigenvalues --    0.25266   0.26076   0.38061   0.38980   0.41946
 Alpha virt. eigenvalues --    0.44365   0.45761   0.49100   0.51704   0.55362
 Alpha virt. eigenvalues --    0.64094   0.64926   0.69182   0.69311   0.70395
 Alpha virt. eigenvalues --    0.76529   0.77960   0.85332   0.87093   0.88297
 Alpha virt. eigenvalues --    1.10492   1.11256   1.20140   1.24818   1.26761
 Alpha virt. eigenvalues --    1.30063   1.33368   1.34889   1.35974   1.37138
 Alpha virt. eigenvalues --    1.42194   1.44121   1.50380   1.55547   1.55970
 Alpha virt. eigenvalues --    1.56035   1.56258   1.59797   1.60432   1.61192
 Alpha virt. eigenvalues --    1.62834   1.63818   1.64030   1.64388   1.65628
 Alpha virt. eigenvalues --    1.67410   1.67479   1.70483   1.71661   1.73333
 Alpha virt. eigenvalues --    1.79023   1.84697   1.86898   1.87649   1.87981
 Alpha virt. eigenvalues --    1.96237   1.96307   1.97394   2.00054   2.04404
 Alpha virt. eigenvalues --    2.05053   2.06690   2.08279   2.09349   2.10097
 Alpha virt. eigenvalues --    2.10609   2.15571   2.18218   2.21663   2.25639
 Alpha virt. eigenvalues --    2.29323   2.30377   2.30658   2.30947   2.31462
 Alpha virt. eigenvalues --    2.37666   2.37834   2.38016   2.41549   2.43048
 Alpha virt. eigenvalues --    2.43400   2.47308   2.48268   2.54341   2.62752
 Alpha virt. eigenvalues --    2.65711   2.66137   2.70299   2.71674   2.79400
 Alpha virt. eigenvalues --    2.80943   2.81397   2.94963   3.02165   3.02663
 Alpha virt. eigenvalues --    3.15677   3.16692   3.18392   3.27760   3.28047
 Alpha virt. eigenvalues --    3.28399   3.37864   3.40936   3.42270   3.42898
 Alpha virt. eigenvalues --    3.46454   3.50132   3.51197   3.53044   4.56344
 Alpha virt. eigenvalues --    4.65965   4.76625   4.84172   5.08392   5.20824
 Alpha virt. eigenvalues --    5.60654   5.70525   6.09505   6.34883   6.39540
          Condensed to atoms (all electrons):
               1          2          3          4          5          6
     1  C    3.778989   0.365577  -0.058929   0.005408   0.295304   0.281081
     2  C    0.365577   4.439964   0.365687  -0.038697  -0.026344  -0.039017
     3  C   -0.058929   0.365687   3.778777   0.281296   0.001529   0.005374
     4  F    0.005408  -0.038697   0.281296   9.157782  -0.000001  -0.000131
     5  F    0.295304  -0.026344   0.001529  -0.000001   9.139687  -0.034414
     6  F    0.281081  -0.039017   0.005374  -0.000131  -0.034414   9.158644
     7  F   -0.018941   0.216328  -0.019322   0.001047   0.000562   0.000356
     8  F   -0.019493   0.215682  -0.019007   0.000355   0.000546   0.001095
     9  F    0.001530  -0.026294   0.295608  -0.034660  -0.000001  -0.000001
    10  F    0.006021  -0.039350   0.281393  -0.033323  -0.000001  -0.000253
    11  F    0.281526  -0.038942   0.006040  -0.000285  -0.034473  -0.033341
               7          8          9         10         11
     1  C   -0.018941  -0.019493   0.001530   0.006021   0.281526
     2  C    0.216328   0.215682  -0.026294  -0.039350  -0.038942
     3  C   -0.019322  -0.019007   0.295608   0.281393   0.006040
     4  F    0.001047   0.000355  -0.034660  -0.033323  -0.000285
     5  F    0.000562   0.000546  -0.000001  -0.000001  -0.034473
     6  F    0.000356   0.001095  -0.000001  -0.000253  -0.033341
     7  F    9.210210  -0.027881   0.000549   0.000358   0.000990
     8  F   -0.027881   9.211385   0.000560   0.001038   0.000358
     9  F    0.000549   0.000560   9.139070  -0.034455  -0.000001
    10  F    0.000358   0.001038  -0.034455   9.157715  -0.000173
    11  F    0.000990   0.000358  -0.000001  -0.000173   9.156837
 Mulliken charges:
               1
     1  C    1.081927
     2  C    0.605405
     3  C    1.081554
     4  F   -0.338791
     5  F   -0.342396
     6  F   -0.339392
     7  F   -0.364256
     8  F   -0.364637
     9  F   -0.341906
    10  F   -0.338971
    11  F   -0.338536
 Sum of Mulliken charges =  -0.00000
 Mulliken charges with hydrogens summed into heavy atoms:
               1
     1  C    1.081927
     2  C    0.605405
     3  C    1.081554
     4  F   -0.338791
     5  F   -0.342396
     6  F   -0.339392
     7  F   -0.364256
     8  F   -0.364637
     9  F   -0.341906
    10  F   -0.338971
    11  F   -0.338536
 Electronic spatial extent (au):  <R**2>=           1281.9212
 Charge=             -0.0000 electrons
 Dipole moment (field-independent basis, Debye):
    X=              0.0035    Y=             -0.1372    Z=             -0.0109  Tot=              0.1377
 Quadrupole moment (field-independent basis, Debye-Ang):
   XX=            -56.8197   YY=            -57.2280   ZZ=            -57.2918
   XY=              0.0044   XZ=              0.0193   YZ=              0.0018
 Traceless Quadrupole moment (field-independent basis, Debye-Ang):
   XX=              0.2934   YY=             -0.1148   ZZ=             -0.1786
   XY=              0.0044   XZ=              0.0193   YZ=              0.0018
 Octapole moment (field-independent basis, Debye-Ang**2):
  XXX=              0.0108  YYY=             -1.5387  ZZZ=             -0.0529  XYY=              0.0055
  XXY=             -1.9677  XXZ=              0.0169  XZZ=              0.0027  YZZ=              0.5989
  YYZ=              0.0363  XYZ=             -0.0343
 Hexadecapole moment (field-independent basis, Debye-Ang**3):
 XXXX=           -670.7163 YYYY=           -282.8852 ZZZZ=           -227.8729 XXXY=              0.0019
 XXXZ=             -0.1071 YYYX=             -0.0067 YYYZ=             -0.0180 ZZZX=              0.1240
 ZZZY=              0.0108 XXYY=           -158.5497 XXZZ=           -150.4253 YYZZ=            -88.4718
 XXYZ=              0.0494 YYXZ=             -0.0691 ZZXY=              0.0011
 N-N= 8.069595621742D+02 E-N=-3.780325106593D+03  KE= 9.074254449919D+02
 Calling FoFJK, ICntrl=      2127 FMM=F ISym2X=0 I1Cent= 0 IOpClX= 0 NMat=1 NMatS=1 NMatT=0.
 ***** Axes restored to original set *****
 -------------------------------------------------------------------
 Center     Atomic                   Forces (Hartrees/Bohr)
 Number     Number              X              Y              Z
 -------------------------------------------------------------------
      1        6          -0.000538668   -0.000452724    0.000093811
      2        6          -0.000249446    0.000090510    0.000163499
      3        6          -0.000032985   -0.000265064   -0.000052571
      4        9          -0.000154028   -0.000052317    0.000075611
      5        9           0.000293731   -0.000469491   -0.000022932
      6        9           0.000330754    0.000638804   -0.000411689
      7        9          -0.000058879   -0.000007189   -0.000238551
      8        9           0.000457950    0.000109378    0.000142007
      9        9          -0.000040800   -0.000092918    0.000238045
     10        9           0.000119061    0.000295203   -0.000095253
     11        9          -0.000126689    0.000205809    0.000108024
 -------------------------------------------------------------------
 Cartesian Forces:  Max     0.000638804 RMS     0.000261189

 GradGradGradGradGradGradGradGradGradGradGradGradGradGradGradGradGradGrad
 Berny optimization.
 Search for a local minimum.
 Step number   1 out of a maximum of    2
 All quantities printed in internal units (Hartrees-Bohrs-Radians)
 Second derivative matrix not updated -- first step.
 ITU=  0
     Eigenvalues ---    0.00210   0.00326   0.01383   0.03381   0.05336
     Eigenvalues ---    0.05356   0.05408   0.06872   0.08548   0.09234
     Eigenvalues ---    0.12492   0.14577   0.15200   0.15881   0.18482
     Eigenvalues ---    0.21697   0.24571   0.36841   0.65874   1.01710
     Eigenvalues ---    1.22054   1.29876   1.47904   1.63033   1.63912
     Eigenvalues ---    1.69065   1.73701
 Angle between quadratic step and forces=  77.03 degrees.
 Linear search not attempted -- first point.
 B after Tr=     0.000033    0.000069   -0.000067
         Rot=    1.000000   -0.000008   -0.000005   -0.000012 Ang=  -0.00 deg.
 Variable       Old X    -DE/DX   Delta X   Delta X   Delta X     New X
                                 (Linear)    (Quad)   (Total)
    X1       -5.04189  -0.00054   0.00000  -0.00093  -0.00092  -5.04281
    Y1        0.94856  -0.00045   0.00000  -0.00039  -0.00044   0.94812
    Z1       -0.11383   0.00009   0.00000   0.00125   0.00125  -0.11258
    X2       -3.85740  -0.00025   0.00000   0.00311   0.00311  -3.85430
    Y2        2.31849   0.00009   0.00000   0.00435   0.00429   2.32278
    Z2        2.14356   0.00016   0.00000  -0.00271  -0.00270   2.14086
    X3       -1.69769  -0.00003   0.00000  -0.00331  -0.00326  -1.70095
    Y3        0.93355  -0.00027   0.00000  -0.00134  -0.00137   0.93218
    Z3        3.48331  -0.00005   0.00000   0.00212   0.00209   3.48540
    X4        0.18514  -0.00015   0.00000   0.00092   0.00096   0.18610
    Y4        0.54131  -0.00005   0.00000  -0.00271  -0.00267   0.53864
    Z4        1.91942   0.00008   0.00000   0.00794   0.00788   1.92730
    X5       -6.81590   0.00029   0.00000  -0.01818  -0.01822  -6.83412
    Y5        2.38434  -0.00047   0.00000  -0.01567  -0.01574   2.36860
    Z5       -1.07736  -0.00002   0.00000   0.01214   0.01218  -1.06518
    X6       -6.04771   0.00033   0.00000   0.02250   0.02257  -6.02515
    Y6       -1.19976   0.00064   0.00000  -0.01068  -0.01077  -1.21053
    Z6        0.61009  -0.00041   0.00000  -0.00109  -0.00112   0.60897
    X7       -2.96945  -0.00006   0.00000   0.01160   0.01154  -2.95791
    Y7        4.51833  -0.00001   0.00000  -0.00317  -0.00320   4.51514
    Z7        1.33491  -0.00024   0.00000  -0.01410  -0.01406   1.32084
    X8       -5.67385   0.00046   0.00000   0.00918   0.00918  -5.66466
    Y8        2.72538   0.00011   0.00000   0.01982   0.01969   2.74507
    Z8        3.82320   0.00014   0.00000  -0.00043  -0.00040   3.82280
    X9       -0.89946  -0.00004   0.00000  -0.00798  -0.00795  -0.90741
    Y9        2.32835  -0.00009   0.00000  -0.00855  -0.00859   2.31976
    Z9        5.36719   0.00024   0.00000   0.00968   0.00966   5.37685
   X10       -2.47847   0.00012   0.00000  -0.01044  -0.01033  -2.48880
   Y10       -1.24716   0.00030   0.00000  -0.00125  -0.00131  -1.24847
   Z10        4.36735  -0.00010   0.00000  -0.00541  -0.00547   4.36187
   X11       -3.33798  -0.00013   0.00000  -0.00668  -0.00668  -3.34465
   Y11        0.49315   0.00021   0.00000   0.02009   0.02011   0.51326
   Z11       -1.85532   0.00011   0.00000  -0.00928  -0.00931  -1.86462
         Item               Value     Threshold  Converged?
 Maximum Force            0.000639     0.000450     NO 
 RMS     Force            0.000261     0.000300     YES
 Maximum Displacement     0.022568     0.001800     NO 
 RMS     Displacement     0.009843     0.001200     NO 
 Predicted change in Energy=-9.520287D-06
 GradGradGradGradGradGradGradGradGradGradGradGradGradGradGradGradGradGrad

 1\1\GINC-MU01\Force\RHF\6-31G(d)\C3F8\LBL8\15-Sep-2025\0\\# hf/6-31G(d
 ) force\\Force calculation\\0,1\C,-2.66805115,0.50195631,-0.06023536\C
 ,-2.04125065,1.22689355,1.13432307\C,-0.89837717,0.49401424,1.84328807
 \F,0.09797259,0.28644975,1.01571166\F,-3.60682066,1.26174039,-0.570113
 68\F,-3.20031225,-0.63488702,0.32284702\F,-1.57136599,2.39099858,0.706
 40169\F,-3.00247071,1.44221044,2.02315271\F,-0.47597329,1.23210862,2.8
 4019592\F,-1.31154839,-0.65996977,2.31109964\F,-1.76638198,0.26096356,
 -0.98179139\\Version=ES64L-G16RevA.03\State=1-A\HF=-909.1254993\RMSD=5
 .155e-09\RMSF=2.612e-04\Dipole=0.020943,-0.0466703,-0.017787\Quadrupol
 e=0.0213041,-0.0954386,0.0741344,-0.0171048,0.1689667,0.01016\PG=C01 [
 X(C3F8)]\\@


 SOME PEOPLE TRY TO PULL THE WOOL OVER YOUR EYES
 USING THE WRONG YARN.
 Job cpu time:       0 days  0 hours  0 minutes  7.6 seconds.
 Elapsed time:       0 days  0 hours  0 minutes  7.7 seconds.
 File lengths (MBytes):  RWF=     28 Int=      0 D2E=      0 Chk=      4 Scr=      2
 Normal termination of Gaussian 16 at Mon Sep 15 21:55:52 2025.
