 Entering Gaussian System, Link 0=g16
 Input=gauss.gjf
 Output=gauss.log
 Initial command:
 /software/Applications/gaussian/G16.A03.AVX/g16/l1.exe "/home/lbl8/code/hartree-fock_geomopt-rev-3/example/Gau-3227520.inp" -scrdir="/home/lbl8/code/hartree-fock_geomopt-rev-3/example/"
 Entering Link 1 = /software/Applications/gaussian/G16.A03.AVX/g16/l1.exe PID=   3227522.
  
 Copyright (c) 1988,1990,1992,1993,1995,1998,2003,2009,2016,
            Gaussian, Inc.  All Rights Reserved.
  
 This is part of the Gaussian(R) 16 program.  It is based on
 the Gaussian(R) 09 system (copyright 2009, Gaussian, Inc.),
 the Gaussian(R) 03 system (copyright 2003, Gaussian, Inc.),
 the Gaussian(R) 98 system (copyright 1998, Gaussian, Inc.),
 the Gaussian(R) 94 system (copyright 1995, Gaussian, Inc.),
 the Gaussian 92(TM) system (copyright 1992, Gaussian, Inc.),
 the Gaussian 90(TM) system (copyright 1990, Gaussian, Inc.),
 the Gaussian 88(TM) system (copyright 1988, Gaussian, Inc.),
 the Gaussian 86(TM) system (copyright 1986, Carnegie Mellon
 University), and the Gaussian 82(TM) system (copyright 1983,
 Carnegie Mellon University). Gaussian is a federally registered
 trademark of Gaussian, Inc.
  
 This software contains proprietary and confidential information,
 including trade secrets, belonging to Gaussian, Inc.
  
 This software is provided under written license and may be
 used, copied, transmitted, or stored only in accord with that
 written license.
  
 The following legend is applicable only to US Government
 contracts under FAR:
  
                    RESTRICTED RIGHTS LEGEND
  
 Use, reproduction and disclosure by the US Government is
 subject to restrictions as set forth in subparagraphs (a)
 and (c) of the Commercial Computer Software - Restricted
 Rights clause in FAR 52.227-19.
  
 Gaussian, Inc.
 340 Quinnipiac St., Bldg. 40, Wallingford CT 06492
  
  
 ---------------------------------------------------------------
 Warning -- This program may not be used in any manner that
 competes with the business of Gaussian, Inc. or will provide
 assistance to any competitor of Gaussian, Inc.  The licensee
 of this program is prohibited from giving any competitor of
 Gaussian, Inc. access to this program.  By using this program,
 the user acknowledges that Gaussian, Inc. is engaged in the
 business of creating and licensing software in the field of
 computational chemistry and represents and warrants to the
 licensee that it is not a competitor of Gaussian, Inc. and that
 it will not use this program in any manner prohibited above.
 ---------------------------------------------------------------
  

 Cite this work as:
 Gaussian 16, Revision A.03,
 M. J. Frisch, G. W. Trucks, H. B. Schlegel, G. E. Scuseria, 
 M. A. Robb, J. R. Cheeseman, G. Scalmani, V. Barone, 
 G. A. Petersson, H. Nakatsuji, X. Li, M. Caricato, A. V. Marenich, 
 J. Bloino, B. G. Janesko, R. Gomperts, B. Mennucci, H. P. Hratchian, 
 J. V. Ortiz, A. F. Izmaylov, J. L. Sonnenberg, D. Williams-Young, 
 F. Ding, F. Lipparini, F. Egidi, J. Goings, B. Peng, A. Petrone, 
 T. Henderson, D. Ranasinghe, V. G. Zakrzewski, J. Gao, N. Rega, 
 G. Zheng, W. Liang, M. Hada, M. Ehara, K. Toyota, R. Fukuda, 
 J. Hasegawa, M. Ishida, T. Nakajima, Y. Honda, O. Kitao, H. Nakai, 
 T. Vreven, K. Throssell, J. A. Montgomery, Jr., J. E. Peralta, 
 F. Ogliaro, M. J. Bearpark, J. J. Heyd, E. N. Brothers, K. N. Kudin, 
 V. N. Staroverov, T. A. Keith, R. Kobayashi, J. Normand, 
 K. Raghavachari, A. P. Rendell, J. C. Burant, S. S. Iyengar, 
 J. Tomasi, M. Cossi, J. M. Millam, M. Klene, C. Adamo, R. Cammi, 
 J. W. Ochterski, R. L. Martin, K. Morokuma, O. Farkas, 
 J. B. Foresman, and D. J. Fox, Gaussian, Inc., Wallingford CT, 2016.
 
 ******************************************
 Gaussian 16:  ES64L-G16RevA.03 25-Dec-2016
                15-Sep-2025 
 ******************************************
 %chk=gauss.chk
 -------------------
 # hf/6-31G(d) force
 -------------------
 1/10=7,30=1,38=1/1,3;
 2/12=2,17=6,18=5,40=1/2;
 3/5=1,6=6,7=1,11=9,25=1,30=1,71=1/1,2,3;
 4//1;
 5/5=2,38=5/2;
 6/7=2,8=2,9=2,10=2,28=1/1;
 7/29=1/1,2,3,16;
 1/10=7,30=1/3;
 99//99;
 -----------------
 Force calculation
 -----------------
 Symbolic Z-matrix:
 Charge =  0 Multiplicity = 1
 C                    -2.71201   0.47297  -0.03378 
 C                    -2.12473   1.16242   1.2344 
 C                    -0.79748   0.58391   1.73553 
 F                     0.1349    0.71569   0.82272 
 F                    -2.91104   1.35808  -0.97766 
 F                    -3.85252  -0.10297   0.25092 
 F                    -1.92375   2.44548   0.97445 
 F                    -3.00026   1.05969   2.22377 
 F                    -0.4293    1.23656   2.81099 
 F                    -0.93845  -0.68502   2.0377 
 F                    -1.88995  -0.44434  -0.49416 
 

 GradGradGradGradGradGradGradGradGradGradGradGradGradGradGradGradGradGrad
 Berny optimization.
 Initialization pass.
 Trust Radius=3.00D-01 FncErr=1.00D-07 GrdErr=1.00D-07 EigMax=2.50D+02 EigMin=1.00D-04
 Number of steps in this run=      2 maximum allowed number of steps=      2.
 GradGradGradGradGradGradGradGradGradGradGradGradGradGradGradGradGradGrad

                          Input orientation:                          
 ---------------------------------------------------------------------
 Center     Atomic      Atomic             Coordinates (Angstroms)
 Number     Number       Type             X           Y           Z
 ---------------------------------------------------------------------
      1          6           0       -2.712007    0.472971   -0.033776
      2          6           0       -2.124727    1.162421    1.234404
      3          6           0       -0.797476    0.583908    1.735533
      4          9           0        0.134901    0.715694    0.822717
      5          9           0       -2.911039    1.358084   -0.977661
      6          9           0       -3.852523   -0.102972    0.250918
      7          9           0       -1.923752    2.445485    0.974445
      8          9           0       -3.000255    1.059686    2.223766
      9          9           0       -0.429298    1.236560    2.810995
     10          9           0       -0.938455   -0.685023    2.037699
     11          9           0       -1.889946   -0.444336   -0.494161
 ---------------------------------------------------------------------
                    Distance matrix (angstroms):
                    1          2          3          4          5
     1  C    0.000000
     2  C    1.558372   0.000000
     3  C    2.609250   1.532123   0.000000
     4  F    2.982847   2.339865   1.311460   0.000000
     5  F    1.309182   2.355803   3.525325   3.596079   0.000000
     6  F    1.309022   2.356639   3.465428   4.110562   2.128493
     7  F    2.351312   1.324470   2.305042   2.693186   2.442928
     8  F    2.350281   1.325119   2.305856   3.451155   3.216541
     9  F    3.726466   2.316379   1.310774   2.131401   4.530753
    10  F    2.962676   2.337857   1.312008   2.142494   4.142195
    11  F    1.314986   2.371651   2.687435   2.679523   2.127233
                    6          7          8          9         10
     6  F    0.000000
     7  F    3.276932   0.000000
     8  F    2.443412   2.154089   0.000000
     9  F    4.479600   2.658535   2.643094   0.000000
    10  F    3.467443   3.449841   2.707333   2.133005   0.000000
    11  F    2.126823   3.241760   3.298786   3.985343   2.715434
                   11
    11  F    0.000000
 Stoichiometry    C3F8
 Framework group  C1[X(C3F8)]
 Deg. of freedom    27
 Full point group                 C1      NOp   1
 Largest Abelian subgroup         C1      NOp   1
 Largest concise Abelian subgroup C1      NOp   1
                         Standard orientation:                         
 ---------------------------------------------------------------------
 Center     Atomic      Atomic             Coordinates (Angstroms)
 Number     Number       Type             X           Y           Z
 ---------------------------------------------------------------------
      1          6           0        1.315361    0.211433   -0.000426
      2          6           0       -0.017844   -0.595466   -0.000336
      3          6           0       -1.293558    0.253036   -0.000199
      4          9           0       -1.352607    0.993917   -1.080725
      5          9           0        2.058149   -0.143899   -1.018249
      6          9           0        1.980264   -0.012275    1.104743
      7          9           0       -0.055978   -1.366589   -1.076504
      8          9           0       -0.054123   -1.365344    1.077584
      9          9           0       -2.333564   -0.544500    0.021029
     10          9           0       -1.328694    1.023141    1.061436
     11          9           0        1.083915    1.502879   -0.088674
 ---------------------------------------------------------------------
 Rotational constants (GHZ):           1.7145100           0.9705239           0.9121274
 Standard basis: 6-31G(d) (6D, 7F)
 There are   165 symmetry adapted cartesian basis functions of A   symmetry.
 There are   165 symmetry adapted basis functions of A   symmetry.
   165 basis functions,   308 primitive gaussians,   165 cartesian basis functions
    45 alpha electrons       45 beta electrons
       nuclear repulsion energy       805.7293320424 Hartrees.
 NAtoms=   11 NActive=   11 NUniq=   11 SFac= 1.00D+00 NAtFMM=   60 NAOKFM=F Big=F
 Integral buffers will be    131072 words long.
 Raffenetti 1 integral format.
 Two-electron integral symmetry is turned on.
 One-electron integrals computed using PRISM.
 NBasis=   165 RedAO= T EigKep=  8.36D-04  NBF=   165
 NBsUse=   165 1.00D-06 EigRej= -1.00D+00 NBFU=   165
 ExpMin= 1.69D-01 ExpMax= 7.00D+03 ExpMxC= 1.05D+03 IAcc=3 IRadAn=         5 AccDes= 0.00D+00
 Harris functional with IExCor=  205 and IRadAn=       5 diagonalized for initial guess.
 HarFok:  IExCor=  205 AccDes= 0.00D+00 IRadAn=         5 IDoV= 1 UseB2=F ITyADJ=14
 ICtDFT=  3500011 ScaDFX=  1.000000  1.000000  1.000000  1.000000
 FoFCou: FMM=F IPFlag=           0 FMFlag=      100000 FMFlg1=           0
         NFxFlg=           0 DoJE=T BraDBF=F KetDBF=T FulRan=T
         wScrn=  0.000000 ICntrl=       500 IOpCl=  0 I1Cent=   200000004 NGrid=           0
         NMat0=    1 NMatS0=      1 NMatT0=    0 NMatD0=    1 NMtDS0=    0 NMtDT0=    0
 Petite list used in FoFCou.
 Keep R1 ints in memory in canonical form, NReq=96071382.
 Requested convergence on RMS density matrix=1.00D-08 within 128 cycles.
 Requested convergence on MAX density matrix=1.00D-06.
 Requested convergence on             energy=1.00D-06.
 No special actions if energy rises.
 SCF Done:  E(RHF) =  -909.120052850     A.U. after   11 cycles
            NFock= 11  Conv=0.54D-08     -V/T= 2.0019

 **********************************************************************

            Population analysis using the SCF density.

 **********************************************************************

 Orbital symmetries:
       Occupied  (A) (A) (A) (A) (A) (A) (A) (A) (A) (A) (A) (A)
                 (A) (A) (A) (A) (A) (A) (A) (A) (A) (A) (A) (A)
                 (A) (A) (A) (A) (A) (A) (A) (A) (A) (A) (A) (A)
                 (A) (A) (A) (A) (A) (A) (A) (A) (A)
       Virtual   (A) (A) (A) (A) (A) (A) (A) (A) (A) (A) (A) (A)
                 (A) (A) (A) (A) (A) (A) (A) (A) (A) (A) (A) (A)
                 (A) (A) (A) (A) (A) (A) (A) (A) (A) (A) (A) (A)
                 (A) (A) (A) (A) (A) (A) (A) (A) (A) (A) (A) (A)
                 (A) (A) (A) (A) (A) (A) (A) (A) (A) (A) (A) (A)
                 (A) (A) (A) (A) (A) (A) (A) (A) (A) (A) (A) (A)
                 (A) (A) (A) (A) (A) (A) (A) (A) (A) (A) (A) (A)
                 (A) (A) (A) (A) (A) (A) (A) (A) (A) (A) (A) (A)
                 (A) (A) (A) (A) (A) (A) (A) (A) (A) (A) (A) (A)
                 (A) (A) (A) (A) (A) (A) (A) (A) (A) (A) (A) (A)
 The electronic state is 1-A.
 Alpha  occ. eigenvalues --  -26.37899 -26.37828 -26.37780 -26.37625 -26.37623
 Alpha  occ. eigenvalues --  -26.37555 -26.37335 -26.37305 -11.54935 -11.54550
 Alpha  occ. eigenvalues --  -11.48080  -1.78907  -1.77825  -1.73204  -1.68304
 Alpha  occ. eigenvalues --   -1.67762  -1.67656  -1.67348  -1.66041  -1.12069
 Alpha  occ. eigenvalues --   -1.02488  -0.95537  -0.90976  -0.88831  -0.87610
 Alpha  occ. eigenvalues --   -0.86561  -0.85763  -0.85306  -0.81372  -0.76274
 Alpha  occ. eigenvalues --   -0.75312  -0.74788  -0.74058  -0.73927  -0.72722
 Alpha  occ. eigenvalues --   -0.71424  -0.70161  -0.70123  -0.68393  -0.68141
 Alpha  occ. eigenvalues --   -0.68061  -0.67172  -0.67026  -0.63174  -0.56020
 Alpha virt. eigenvalues --    0.24267   0.25061   0.35702   0.39797   0.42289
 Alpha virt. eigenvalues --    0.44592   0.46574   0.51074   0.52291   0.56246
 Alpha virt. eigenvalues --    0.64578   0.65015   0.68314   0.68977   0.71344
 Alpha virt. eigenvalues --    0.76621   0.77459   0.85954   0.87262   0.91223
 Alpha virt. eigenvalues --    1.03857   1.14415   1.20473   1.23989   1.25056
 Alpha virt. eigenvalues --    1.31635   1.33131   1.34232   1.34616   1.35989
 Alpha virt. eigenvalues --    1.40188   1.48159   1.51447   1.52413   1.53033
 Alpha virt. eigenvalues --    1.56469   1.56756   1.59475   1.61046   1.61739
 Alpha virt. eigenvalues --    1.63096   1.63393   1.64786   1.65222   1.66598
 Alpha virt. eigenvalues --    1.67618   1.68656   1.71163   1.73500   1.78702
 Alpha virt. eigenvalues --    1.79419   1.80692   1.84660   1.89079   1.93348
 Alpha virt. eigenvalues --    1.96856   1.97415   1.98617   2.02822   2.05835
 Alpha virt. eigenvalues --    2.05941   2.07765   2.08380   2.09465   2.10537
 Alpha virt. eigenvalues --    2.12942   2.14830   2.18140   2.21010   2.26900
 Alpha virt. eigenvalues --    2.27432   2.30124   2.31058   2.32434   2.32849
 Alpha virt. eigenvalues --    2.37770   2.38287   2.38728   2.38995   2.40312
 Alpha virt. eigenvalues --    2.40510   2.44394   2.46040   2.50988   2.51122
 Alpha virt. eigenvalues --    2.56557   2.66016   2.70551   2.75738   2.78683
 Alpha virt. eigenvalues --    2.86499   2.91652   2.97875   2.98378   3.03582
 Alpha virt. eigenvalues --    3.09526   3.14764   3.16503   3.27557   3.28410
 Alpha virt. eigenvalues --    3.31840   3.36899   3.40382   3.41165   3.42746
 Alpha virt. eigenvalues --    3.44960   3.49931   3.50759   3.53047   4.44883
 Alpha virt. eigenvalues --    4.51923   4.72175   4.81239   5.09402   5.26779
 Alpha virt. eigenvalues --    5.48889   5.54686   6.16119   6.26684   7.49247
          Condensed to atoms (all electrons):
               1          2          3          4          5          6
     1  C    3.758974   0.365574  -0.068303   0.006563   0.290684   0.291345
     2  C    0.365574   4.442706   0.384487  -0.039111  -0.027925  -0.029523
     3  C   -0.068303   0.384487   3.756924   0.278685   0.001064   0.000967
     4  F    0.006563  -0.039111   0.278685   9.162614  -0.000053   0.000001
     5  F    0.290684  -0.027925   0.001064  -0.000053   9.143796  -0.035131
     6  F    0.291345  -0.029523   0.000967   0.000001  -0.035131   9.143520
     7  F   -0.016923   0.215407  -0.019809   0.001105  -0.001023   0.000275
     8  F   -0.017098   0.215185  -0.019882   0.000364   0.000235  -0.000883
     9  F    0.001458  -0.026719   0.296187  -0.034319  -0.000001  -0.000001
    10  F    0.008375  -0.040930   0.278551  -0.031338   0.000001  -0.000092
    11  F    0.286692  -0.036998   0.012536  -0.001178  -0.035604  -0.035722
               7          8          9         10         11
     1  C   -0.016923  -0.017098   0.001458   0.008375   0.286692
     2  C    0.215407   0.215185  -0.026719  -0.040930  -0.036998
     3  C   -0.019809  -0.019882   0.296187   0.278551   0.012536
     4  F    0.001105   0.000364  -0.034319  -0.031338  -0.001178
     5  F   -0.001023   0.000235  -0.000001   0.000001  -0.035604
     6  F    0.000275  -0.000883  -0.000001  -0.000092  -0.035722
     7  F    9.210280  -0.029218   0.000588   0.000369   0.000314
     8  F   -0.029218   9.211015   0.000607   0.001098   0.000331
     9  F    0.000588   0.000607   9.139678  -0.034028   0.000000
    10  F    0.000369   0.001098  -0.034028   9.163309  -0.001260
    11  F    0.000314   0.000331   0.000000  -0.001260   9.155232
 Mulliken charges:
               1
     1  C    1.092660
     2  C    0.577847
     3  C    1.098593
     4  F   -0.343333
     5  F   -0.336043
     6  F   -0.334756
     7  F   -0.361364
     8  F   -0.361754
     9  F   -0.343451
    10  F   -0.344055
    11  F   -0.344343
 Sum of Mulliken charges =  -0.00000
 Mulliken charges with hydrogens summed into heavy atoms:
               1
     1  C    1.092660
     2  C    0.577847
     3  C    1.098593
     4  F   -0.343333
     5  F   -0.336043
     6  F   -0.334756
     7  F   -0.361364
     8  F   -0.361754
     9  F   -0.343451
    10  F   -0.344055
    11  F   -0.344343
 Electronic spatial extent (au):  <R**2>=           1290.3087
 Charge=             -0.0000 electrons
 Dipole moment (field-independent basis, Debye):
    X=              0.0664    Y=              0.0818    Z=             -0.0067  Tot=              0.1056
 Quadrupole moment (field-independent basis, Debye-Ang):
   XX=            -56.9789   YY=            -57.2617   ZZ=            -57.2680
   XY=             -0.2186   XZ=             -0.0021   YZ=             -0.0000
 Traceless Quadrupole moment (field-independent basis, Debye-Ang):
   XX=              0.1906   YY=             -0.0922   ZZ=             -0.0985
   XY=             -0.2186   XZ=             -0.0021   YZ=             -0.0000
 Octapole moment (field-independent basis, Debye-Ang**2):
  XXX=              0.0975  YYY=              0.2703  ZZZ=             -0.1869  XYY=              0.8667
  XXY=              1.4084  XXZ=              0.0626  XZZ=             -0.9951  YZZ=              1.2838
  YYZ=              0.1307  XYZ=             -0.1316
 Hexadecapole moment (field-independent basis, Debye-Ang**3):
 XXXX=           -676.3758 YYYY=           -287.3331 ZZZZ=           -227.2130 XXXY=             -1.8328
 XXXZ=              0.3046 YYYX=             -1.2826 YYYZ=              0.1002 ZZZX=             -0.3854
 ZZZY=             -0.0436 XXYY=           -157.6848 XXZZ=           -154.2954 YYZZ=            -88.0028
 XXYZ=             -0.1986 YYXZ=              0.2293 ZZXY=              2.3194
 N-N= 8.057293320424D+02 E-N=-3.777936499713D+03  KE= 9.074147696588D+02
 Calling FoFJK, ICntrl=      2127 FMM=F ISym2X=0 I1Cent= 0 IOpClX= 0 NMat=1 NMatS=1 NMatT=0.
 ***** Axes restored to original set *****
 -------------------------------------------------------------------
 Center     Atomic                   Forces (Hartrees/Bohr)
 Number     Number              X              Y              Z
 -------------------------------------------------------------------
      1        6          -0.000125375    0.000154728   -0.000067563
      2        6          -0.000315491   -0.000268332   -0.000014665
      3        6          -0.000259388    0.000053450   -0.000074201
      4        9           0.000108611   -0.000121001   -0.000008195
      5        9          -0.000202500   -0.000044331    0.000259050
      6        9           0.000187054   -0.000152159    0.000159070
      7        9           0.000224185    0.000088418   -0.000124789
      8        9           0.000128560    0.000328984   -0.000215458
      9        9          -0.000131907   -0.000005645    0.000165931
     10        9           0.000115429   -0.000198262   -0.000143587
     11        9           0.000270821    0.000164151    0.000064407
 -------------------------------------------------------------------
 Cartesian Forces:  Max     0.000328984 RMS     0.000172251

 GradGradGradGradGradGradGradGradGradGradGradGradGradGradGradGradGradGrad
 Berny optimization.
 Search for a local minimum.
 Step number   1 out of a maximum of    2
 All quantities printed in internal units (Hartrees-Bohrs-Radians)
 Second derivative matrix not updated -- first step.
 ITU=  0
     Eigenvalues ---    0.00158   0.00280   0.01360   0.03375   0.05303
     Eigenvalues ---    0.05307   0.05383   0.06836   0.08547   0.09213
     Eigenvalues ---    0.12472   0.14475   0.15161   0.15664   0.18234
     Eigenvalues ---    0.21464   0.24592   0.36265   0.64864   1.02268
     Eigenvalues ---    1.20483   1.30182   1.48512   1.61580   1.64690
     Eigenvalues ---    1.67661   1.73901
 Angle between quadratic step and forces=  55.62 degrees.
 Linear search not attempted -- first point.
 B after Tr=     0.000005    0.000503   -0.000285
         Rot=    1.000000   -0.000025   -0.000044   -0.000073 Ang=  -0.01 deg.
 Variable       Old X    -DE/DX   Delta X   Delta X   Delta X     New X
                                 (Linear)    (Quad)   (Total)
    X1       -5.12495  -0.00013   0.00000   0.00160   0.00147  -5.12348
    Y1        0.89378   0.00015   0.00000   0.00176   0.00151   0.89530
    Z1       -0.06383  -0.00007   0.00000   0.00009   0.00030  -0.06353
    X2       -4.01515  -0.00032   0.00000   0.01340   0.01328  -4.00187
    Y2        2.19666  -0.00027   0.00000   0.01987   0.01967   2.21633
    Z2        2.33269  -0.00001   0.00000  -0.01724  -0.01706   2.31563
    X3       -1.50701  -0.00026   0.00000  -0.01310  -0.01296  -1.51997
    Y3        1.10343   0.00005   0.00000  -0.01534  -0.01523   1.08820
    Z3        3.27968  -0.00007   0.00000   0.01164   0.01154   3.29122
    X4        0.25493   0.00011   0.00000   0.01371   0.01366   0.26858
    Y4        1.35247  -0.00012   0.00000  -0.03428  -0.03382   1.31865
    Z4        1.55471  -0.00001   0.00000   0.03612   0.03588   1.59059
    X5       -5.50107  -0.00020   0.00000  -0.13115  -0.13168  -5.63275
    Y5        2.56641  -0.00004   0.00000   0.00798   0.00775   2.57415
    Z5       -1.84751   0.00026   0.00000   0.03431   0.03465  -1.81286
    X6       -7.28021   0.00019   0.00000   0.06971   0.06980  -7.21041
    Y6       -0.19459  -0.00015   0.00000  -0.10692  -0.10750  -0.30209
    Z6        0.47417   0.00016   0.00000   0.05264   0.05297   0.52714
    X7       -3.63537   0.00022   0.00000   0.06271   0.06219  -3.57318
    Y7        4.62130   0.00009   0.00000   0.00498   0.00487   4.62616
    Z7        1.84143  -0.00012   0.00000  -0.05385  -0.05359   1.78785
    X8       -5.66966   0.00013   0.00000   0.00114   0.00121  -5.66845
    Y8        2.00252   0.00033   0.00000   0.08189   0.08135   2.08387
    Z8        4.20231  -0.00022   0.00000  -0.02224  -0.02192   4.18039
    X9       -0.81126  -0.00013   0.00000  -0.02542  -0.02528  -0.83654
    Y9        2.33676  -0.00001   0.00000  -0.03110  -0.03099   2.30577
    Z9        5.31201   0.00017   0.00000   0.02560   0.02551   5.33752
   X10       -1.77342   0.00012   0.00000  -0.05070  -0.05016  -1.82358
   Y10       -1.29451  -0.00020   0.00000  -0.01429  -0.01425  -1.30875
   Z10        3.85069  -0.00014   0.00000  -0.00050  -0.00069   3.85000
   X11       -3.57148   0.00027   0.00000   0.05846   0.05849  -3.51299
   Y11       -0.83967   0.00016   0.00000   0.08660   0.08664  -0.75303
   Z11       -0.93383   0.00006   0.00000  -0.06758  -0.06759  -1.00142
         Item               Value     Threshold  Converged?
 Maximum Force            0.000329     0.000450     YES
 RMS     Force            0.000172     0.000300     YES
 Maximum Displacement     0.131684     0.001800     NO 
 RMS     Displacement     0.048045     0.001200     NO 
 Predicted change in Energy=-7.710377D-05
 GradGradGradGradGradGradGradGradGradGradGradGradGradGradGradGradGradGrad

 1\1\GINC-MU01\Force\RHF\6-31G(d)\C3F8\LBL8\15-Sep-2025\0\\# hf/6-31G(d
 ) force\\Force calculation\\0,1\C,-2.71200651,0.47297052,-0.03377631\C
 ,-2.12472667,1.1624213,1.23440429\C,-0.7974764,0.58390819,1.73553282\F
 ,0.13490115,0.71569377,0.82271725\F,-2.91103947,1.35808392,-0.97766132
 \F,-3.85252277,-0.10297239,0.25091792\F,-1.92375235,2.44548499,0.97444
 513\F,-3.00025515,1.05968613,2.22376575\F,-0.42929775,1.23656049,2.810
 99484\F,-0.93845461,-0.68502314,2.03769919\F,-1.88994641,-0.44433587,-
 0.49416064\\Version=ES64L-G16RevA.03\State=1-A\HF=-909.1200528\RMSD=5.
 359e-09\RMSF=1.723e-04\Dipole=-0.0024657,-0.0243369,-0.0335605\Quadrup
 ole=0.1516033,-0.083558,-0.0680453,-0.0798962,0.1067809,-0.0799741\PG=
 C01 [X(C3F8)]\\@


 YOU ARE IN A MAZE OF TWISTY LITTLE PASSAGES.
 Job cpu time:       0 days  0 hours  0 minutes  7.6 seconds.
 Elapsed time:       0 days  0 hours  0 minutes  7.6 seconds.
 File lengths (MBytes):  RWF=     28 Int=      0 D2E=      0 Chk=      4 Scr=      2
 Normal termination of Gaussian 16 at Mon Sep 15 21:50:36 2025.
