 Entering Gaussian System, Link 0=g16
 Input=gauss.gjf
 Output=gauss.log
 Initial command:
 /software/Applications/gaussian/G16.A03.AVX/g16/l1.exe "/home/lbl8/code/hartree-fock_geomopt-rev-3/example/Gau-3214278.inp" -scrdir="/home/lbl8/code/hartree-fock_geomopt-rev-3/example/"
 Entering Link 1 = /software/Applications/gaussian/G16.A03.AVX/g16/l1.exe PID=   3214280.
  
 Copyright (c) 1988,1990,1992,1993,1995,1998,2003,2009,2016,
            Gaussian, Inc.  All Rights Reserved.
  
 This is part of the Gaussian(R) 16 program.  It is based on
 the Gaussian(R) 09 system (copyright 2009, Gaussian, Inc.),
 the Gaussian(R) 03 system (copyright 2003, Gaussian, Inc.),
 the Gaussian(R) 98 system (copyright 1998, Gaussian, Inc.),
 the Gaussian(R) 94 system (copyright 1995, Gaussian, Inc.),
 the Gaussian 92(TM) system (copyright 1992, Gaussian, Inc.),
 the Gaussian 90(TM) system (copyright 1990, Gaussian, Inc.),
 the Gaussian 88(TM) system (copyright 1988, Gaussian, Inc.),
 the Gaussian 86(TM) system (copyright 1986, Carnegie Mellon
 University), and the Gaussian 82(TM) system (copyright 1983,
 Carnegie Mellon University). Gaussian is a federally registered
 trademark of Gaussian, Inc.
  
 This software contains proprietary and confidential information,
 including trade secrets, belonging to Gaussian, Inc.
  
 This software is provided under written license and may be
 used, copied, transmitted, or stored only in accord with that
 written license.
  
 The following legend is applicable only to US Government
 contracts under FAR:
  
                    RESTRICTED RIGHTS LEGEND
  
 Use, reproduction and disclosure by the US Government is
 subject to restrictions as set forth in subparagraphs (a)
 and (c) of the Commercial Computer Software - Restricted
 Rights clause in FAR 52.227-19.
  
 Gaussian, Inc.
 340 Quinnipiac St., Bldg. 40, Wallingford CT 06492
  
  
 ---------------------------------------------------------------
 Warning -- This program may not be used in any manner that
 competes with the business of Gaussian, Inc. or will provide
 assistance to any competitor of Gaussian, Inc.  The licensee
 of this program is prohibited from giving any competitor of
 Gaussian, Inc. access to this program.  By using this program,
 the user acknowledges that Gaussian, Inc. is engaged in the
 business of creating and licensing software in the field of
 computational chemistry and represents and warrants to the
 licensee that it is not a competitor of Gaussian, Inc. and that
 it will not use this program in any manner prohibited above.
 ---------------------------------------------------------------
  

 Cite this work as:
 Gaussian 16, Revision A.03,
 M. J. Frisch, G. W. Trucks, H. B. Schlegel, G. E. Scuseria, 
 M. A. Robb, J. R. Cheeseman, G. Scalmani, V. Barone, 
 G. A. Petersson, H. Nakatsuji, X. Li, M. Caricato, A. V. Marenich, 
 J. Bloino, B. G. Janesko, R. Gomperts, B. Mennucci, H. P. Hratchian, 
 J. V. Ortiz, A. F. Izmaylov, J. L. Sonnenberg, D. Williams-Young, 
 F. Ding, F. Lipparini, F. Egidi, J. Goings, B. Peng, A. Petrone, 
 T. Henderson, D. Ranasinghe, V. G. Zakrzewski, J. Gao, N. Rega, 
 G. Zheng, W. Liang, M. Hada, M. Ehara, K. Toyota, R. Fukuda, 
 J. Hasegawa, M. Ishida, T. Nakajima, Y. Honda, O. Kitao, H. Nakai, 
 T. Vreven, K. Throssell, J. A. Montgomery, Jr., J. E. Peralta, 
 F. Ogliaro, M. J. Bearpark, J. J. Heyd, E. N. Brothers, K. N. Kudin, 
 V. N. Staroverov, T. A. Keith, R. Kobayashi, J. Normand, 
 K. Raghavachari, A. P. Rendell, J. C. Burant, S. S. Iyengar, 
 J. Tomasi, M. Cossi, J. M. Millam, M. Klene, C. Adamo, R. Cammi, 
 J. W. Ochterski, R. L. Martin, K. Morokuma, O. Farkas, 
 J. B. Foresman, and D. J. Fox, Gaussian, Inc., Wallingford CT, 2016.
 
 ******************************************
 Gaussian 16:  ES64L-G16RevA.03 25-Dec-2016
                15-Sep-2025 
 ******************************************
 %chk=gauss.chk
 -------------------
 # hf/6-31G(d) force
 -------------------
 1/10=7,30=1,38=1/1,3;
 2/12=2,17=6,18=5,40=1/2;
 3/5=1,6=6,7=1,11=9,25=1,30=1,71=1/1,2,3;
 4//1;
 5/5=2,38=5/2;
 6/7=2,8=2,9=2,10=2,28=1/1;
 7/29=1/1,2,3,16;
 1/10=7,30=1/3;
 99//99;
 -----------------
 Force calculation
 -----------------
 Symbolic Z-matrix:
 Charge =  0 Multiplicity = 1
 C                    -2.86842   1.87435   0.04918 
 C                    -1.66059   2.29122   0.86752 
 C                    -1.09749   2.97371   3.92043 
 C                    -0.64366   1.87856   2.96462 
 H                    -2.82215   0.81676  -0.186 
 H                    -2.90976   2.43313  -0.88105 
 H                    -3.78165   2.05395   0.60547 
 H                    -1.70722   3.35506   1.09352 
 H                    -0.74233   2.12304   0.3056 
 H                    -1.99711   2.6568    4.43784 
 H                    -0.33411   3.16976   4.66675 
 H                    -1.31345   3.90141   3.39991 
 H                     0.26692   2.16803   2.44184 
 H                    -0.41968   0.97966   3.52552 
 O                    -1.64185   1.53581   2.04396 
 

 GradGradGradGradGradGradGradGradGradGradGradGradGradGradGradGradGradGrad
 Berny optimization.
 Initialization pass.
 Trust Radius=3.00D-01 FncErr=1.00D-07 GrdErr=1.00D-07 EigMax=2.50D+02 EigMin=1.00D-04
 Number of steps in this run=      2 maximum allowed number of steps=      2.
 GradGradGradGradGradGradGradGradGradGradGradGradGradGradGradGradGradGrad

                          Input orientation:                          
 ---------------------------------------------------------------------
 Center     Atomic      Atomic             Coordinates (Angstroms)
 Number     Number       Type             X           Y           Z
 ---------------------------------------------------------------------
      1          6           0       -2.868419    1.874347    0.049181
      2          6           0       -1.660590    2.291222    0.867515
      3          6           0       -1.097494    2.973710    3.920429
      4          6           0       -0.643665    1.878557    2.964615
      5          1           0       -2.822153    0.816762   -0.186004
      6          1           0       -2.909761    2.433133   -0.881052
      7          1           0       -3.781653    2.053945    0.605468
      8          1           0       -1.707219    3.355063    1.093517
      9          1           0       -0.742326    2.123035    0.305601
     10          1           0       -1.997110    2.656799    4.437839
     11          1           0       -0.334110    3.169763    4.666747
     12          1           0       -1.313447    3.901411    3.399914
     13          1           0        0.266916    2.168028    2.441836
     14          1           0       -0.419683    0.979664    3.525524
     15          8           0       -1.641852    1.535814    2.043962
 ---------------------------------------------------------------------
                    Distance matrix (angstroms):
                    1          2          3          4          5
     1  C    0.000000
     2  C    1.517335   0.000000
     3  C    4.396741   3.178545   0.000000
     4  C    3.667329   2.366909   1.522794   0.000000
     5  H    1.084407   2.152478   4.948703   3.974874   0.000000
     6  H    1.085949   2.153614   5.160499   4.497989   1.761654
     7  H    1.084300   2.150320   4.363444   3.929797   1.754335
     8  H    2.152102   1.088582   2.916955   2.610024   3.053396
     9  H    2.155892   1.089607   3.730519   2.672051   2.504737
    10  H    4.542217   3.604734   1.085105   2.146594   5.044439
    11  H    5.424273   4.118925   1.085441   2.158770   5.939374
    12  H    4.213590   3.020971   1.085449   2.174864   4.964883
    13  H    3.954917   2.491775   2.167251   1.089151   4.274788
    14  H    4.345311   3.213261   2.142802   1.082957   4.424234
    15  O    2.366056   1.398220   2.425902   1.400519   2.623527
                    6          7          8          9         10
     6  H    0.000000
     7  H    1.764574   0.000000
     8  H    2.488972   2.496873   0.000000
     9  H    2.490398   3.054866   1.752063   0.000000
    10  H    5.401256   4.270257   3.428717   4.351411   0.000000
    11  H    6.160736   5.442847   3.832458   4.503540   1.755306
    12  H    4.799034   4.161022   2.402711   3.614356   1.758903
    13  H    4.604687   4.447041   2.669125   2.363068   3.057571
    14  H    5.266021   4.580791   3.635235   3.432098   2.476566
    15  O    3.311870   2.629919   2.053604   2.043496   2.667108
                   11         12         13         14         15
    11  H    0.000000
    12  H    1.760475   0.000000
    13  H    2.512953   2.533787   0.000000
    14  H    2.471082   3.057973   1.748716   0.000000
    15  O    3.355440   2.746363   2.049731   1.999507   0.000000
 Stoichiometry    C4H10O
 Framework group  C1[X(C4H10O)]
 Deg. of freedom    39
 Full point group                 C1      NOp   1
 Largest Abelian subgroup         C1      NOp   1
 Largest concise Abelian subgroup C1      NOp   1
                         Standard orientation:                         
 ---------------------------------------------------------------------
 Center     Atomic      Atomic             Coordinates (Angstroms)
 Number     Number       Type             X           Y           Z
 ---------------------------------------------------------------------
      1          6           0        2.298756    0.265303   -0.206595
      2          6           0        0.985003    0.024016    0.513223
      3          6           0       -2.078819    0.647781   -0.058673
      4          6           0       -1.248690   -0.622213    0.071337
      5          1           0        2.658166   -0.651733   -0.660254
      6          1           0        3.052708    0.625646    0.486944
      7          1           0        2.168711    0.999603   -0.993741
      8          1           0        0.632897    0.945187    0.974174
      9          1           0        1.116042   -0.704558    1.312756
     10          1           0       -2.100181    0.965221   -1.096087
     11          1           0       -3.101772    0.469451    0.257474
     12          1           0       -1.673084    1.459381    0.537049
     13          1           0       -1.222855   -0.968887    1.103518
     14          1           0       -1.698400   -1.409787   -0.520512
     15          8           0        0.053783   -0.452356   -0.414634
 ---------------------------------------------------------------------
 Rotational constants (GHZ):          13.5901365           2.4793121           2.3697232
 Standard basis: 6-31G(d) (6D, 7F)
 There are    95 symmetry adapted cartesian basis functions of A   symmetry.
 There are    95 symmetry adapted basis functions of A   symmetry.
    95 basis functions,   180 primitive gaussians,    95 cartesian basis functions
    21 alpha electrons       21 beta electrons
       nuclear repulsion energy       192.5476347478 Hartrees.
 NAtoms=   15 NActive=   15 NUniq=   15 SFac= 1.00D+00 NAtFMM=   60 NAOKFM=F Big=F
 Integral buffers will be    131072 words long.
 Raffenetti 1 integral format.
 Two-electron integral symmetry is turned on.
 One-electron integrals computed using PRISM.
 NBasis=    95 RedAO= T EigKep=  4.92D-03  NBF=    95
 NBsUse=    95 1.00D-06 EigRej= -1.00D+00 NBFU=    95
 ExpMin= 1.61D-01 ExpMax= 5.48D+03 ExpMxC= 8.25D+02 IAcc=3 IRadAn=         5 AccDes= 0.00D+00
 Harris functional with IExCor=  205 and IRadAn=       5 diagonalized for initial guess.
 HarFok:  IExCor=  205 AccDes= 0.00D+00 IRadAn=         5 IDoV= 1 UseB2=F ITyADJ=14
 ICtDFT=  3500011 ScaDFX=  1.000000  1.000000  1.000000  1.000000
 FoFCou: FMM=F IPFlag=           0 FMFlag=      100000 FMFlg1=           0
         NFxFlg=           0 DoJE=T BraDBF=F KetDBF=T FulRan=T
         wScrn=  0.000000 ICntrl=       500 IOpCl=  0 I1Cent=   200000004 NGrid=           0
         NMat0=    1 NMatS0=      1 NMatT0=    0 NMatD0=    1 NMtDS0=    0 NMtDT0=    0
 Petite list used in FoFCou.
 Keep R1 ints in memory in canonical form, NReq=11281957.
 Requested convergence on RMS density matrix=1.00D-08 within 128 cycles.
 Requested convergence on MAX density matrix=1.00D-06.
 Requested convergence on             energy=1.00D-06.
 No special actions if energy rises.
 SCF Done:  E(RHF) =  -232.142026479     A.U. after   11 cycles
            NFock= 11  Conv=0.97D-08     -V/T= 2.0009

 **********************************************************************

            Population analysis using the SCF density.

 **********************************************************************

 Orbital symmetries:
       Occupied  (A) (A) (A) (A) (A) (A) (A) (A) (A) (A) (A) (A)
                 (A) (A) (A) (A) (A) (A) (A) (A) (A)
       Virtual   (A) (A) (A) (A) (A) (A) (A) (A) (A) (A) (A) (A)
                 (A) (A) (A) (A) (A) (A) (A) (A) (A) (A) (A) (A)
                 (A) (A) (A) (A) (A) (A) (A) (A) (A) (A) (A) (A)
                 (A) (A) (A) (A) (A) (A) (A) (A) (A) (A) (A) (A)
                 (A) (A) (A) (A) (A) (A) (A) (A) (A) (A) (A) (A)
                 (A) (A) (A) (A) (A) (A) (A) (A) (A) (A) (A) (A)
                 (A) (A)
 The electronic state is 1-A.
 Alpha  occ. eigenvalues --  -20.54958 -11.26830 -11.26809 -11.21030 -11.20879
 Alpha  occ. eigenvalues --   -1.37454  -1.04042  -0.98532  -0.85954  -0.81614
 Alpha  occ. eigenvalues --   -0.67163  -0.65005  -0.64073  -0.57287  -0.55182
 Alpha  occ. eigenvalues --   -0.54288  -0.52321  -0.50081  -0.48867  -0.45826
 Alpha  occ. eigenvalues --   -0.40671
 Alpha virt. eigenvalues --    0.23467   0.26182   0.28034   0.29423   0.31705
 Alpha virt. eigenvalues --    0.32245   0.32500   0.33834   0.34468   0.36087
 Alpha virt. eigenvalues --    0.38424   0.41179   0.43247   0.45860   0.71063
 Alpha virt. eigenvalues --    0.73435   0.75680   0.76377   0.77471   0.78426
 Alpha virt. eigenvalues --    0.84307   0.87630   0.91789   0.94795   0.97377
 Alpha virt. eigenvalues --    1.04930   1.10489   1.12936   1.13860   1.16912
 Alpha virt. eigenvalues --    1.18203   1.19007   1.19798   1.21411   1.23114
 Alpha virt. eigenvalues --    1.25096   1.27122   1.31718   1.39220   1.43270
 Alpha virt. eigenvalues --    1.57370   1.63382   1.70459   1.74273   1.76390
 Alpha virt. eigenvalues --    1.86561   1.98185   2.01912   2.10249   2.18153
 Alpha virt. eigenvalues --    2.23060   2.26846   2.28231   2.32404   2.44683
 Alpha virt. eigenvalues --    2.46510   2.50153   2.55339   2.58646   2.64584
 Alpha virt. eigenvalues --    2.65613   2.68683   2.76565   2.80673   2.86592
 Alpha virt. eigenvalues --    2.99997   3.04576   3.19758   3.34253   4.37889
 Alpha virt. eigenvalues --    4.61467   4.62433   4.81998   4.88693
          Condensed to atoms (all electrons):
               1          2          3          4          5          6
     1  C    5.093773   0.365387  -0.000158   0.005113   0.390275   0.383060
     2  C    0.365387   4.768064  -0.004313  -0.042928  -0.034732  -0.037102
     3  C   -0.000158  -0.004313   5.151041   0.345542   0.000007   0.000006
     4  C    0.005113  -0.042928   0.345542   4.771446  -0.000087  -0.000131
     5  H    0.390275  -0.034732   0.000007  -0.000087   0.522939  -0.025777
     6  H    0.383060  -0.037102   0.000006  -0.000131  -0.025777   0.547947
     7  H    0.390130  -0.035445   0.000020  -0.000269  -0.027989  -0.025086
     8  H   -0.042456   0.395179   0.002608  -0.001395   0.004796  -0.000346
     9  H   -0.041055   0.399550  -0.000302  -0.008013  -0.005119   0.000083
    10  H   -0.000030  -0.000038   0.390115  -0.035546   0.000001   0.000001
    11  H    0.000002   0.000037   0.376673  -0.033890  -0.000000  -0.000000
    12  H   -0.000019   0.000810   0.389648  -0.032686  -0.000002   0.000001
    13  H   -0.000142  -0.009107  -0.052623   0.397269  -0.000003   0.000016
    14  H   -0.000135   0.005032  -0.050002   0.413966  -0.000012   0.000002
    15  O   -0.055805   0.208762  -0.052952   0.208097   0.001608   0.002929
               7          8          9         10         11         12
     1  C    0.390130  -0.042456  -0.041055  -0.000030   0.000002  -0.000019
     2  C   -0.035445   0.395179   0.399550  -0.000038   0.000037   0.000810
     3  C    0.000020   0.002608  -0.000302   0.390115   0.376673   0.389648
     4  C   -0.000269  -0.001395  -0.008013  -0.035546  -0.033890  -0.032686
     5  H   -0.027989   0.004796  -0.005119   0.000001  -0.000000  -0.000002
     6  H   -0.025086  -0.000346   0.000083   0.000001  -0.000000   0.000001
     7  H    0.524760  -0.005215   0.004704   0.000008   0.000001   0.000015
     8  H   -0.005215   0.610598  -0.052778   0.000092  -0.000238  -0.000604
     9  H    0.004704  -0.052778   0.600224   0.000022   0.000037   0.000079
    10  H    0.000008   0.000092   0.000022   0.524031  -0.026091  -0.027957
    11  H    0.000001  -0.000238   0.000037  -0.026091   0.550883  -0.026366
    12  H    0.000015  -0.000604   0.000079  -0.027957  -0.026366   0.536215
    13  H    0.000025  -0.000910   0.006991   0.004616   0.000753  -0.003647
    14  H    0.000007  -0.000328   0.000161  -0.004133  -0.000196   0.003959
    15  O    0.001884  -0.044016  -0.042547   0.000886   0.003207  -0.000294
              13         14         15
     1  C   -0.000142  -0.000135  -0.055805
     2  C   -0.009107   0.005032   0.208762
     3  C   -0.052623  -0.050002  -0.052952
     4  C    0.397269   0.413966   0.208097
     5  H   -0.000003  -0.000012   0.001608
     6  H    0.000016   0.000002   0.002929
     7  H    0.000025   0.000007   0.001884
     8  H   -0.000910  -0.000328  -0.044016
     9  H    0.006991   0.000161  -0.042547
    10  H    0.004616  -0.004133   0.000886
    11  H    0.000753  -0.000196   0.003207
    12  H   -0.003647   0.003959  -0.000294
    13  H    0.592498  -0.034971  -0.037842
    14  H   -0.034971   0.536412  -0.037873
    15  O   -0.037842  -0.037873   8.464225
 Mulliken charges:
               1
     1  C   -0.487939
     2  C    0.020844
     3  C   -0.495312
     4  C    0.013511
     5  H    0.174094
     6  H    0.154395
     7  H    0.172451
     8  H    0.135013
     9  H    0.137962
    10  H    0.174023
    11  H    0.155190
    12  H    0.160849
    13  H    0.137075
    14  H    0.168111
    15  O   -0.620268
 Sum of Mulliken charges =  -0.00000
 Mulliken charges with hydrogens summed into heavy atoms:
               1
     1  C    0.013001
     2  C    0.293819
     3  C   -0.005250
     4  C    0.318698
    15  O   -0.620268
 Electronic spatial extent (au):  <R**2>=            586.1737
 Charge=             -0.0000 electrons
 Dipole moment (field-independent basis, Debye):
    X=             -0.3508    Y=              0.3217    Z=              1.2482  Tot=              1.3359
 Quadrupole moment (field-independent basis, Debye-Ang):
   XX=            -30.9667   YY=            -33.3815   ZZ=            -33.6769
   XY=              0.9952   XZ=              0.6404   YZ=             -0.4595
 Traceless Quadrupole moment (field-independent basis, Debye-Ang):
   XX=              1.7084   YY=             -0.7065   ZZ=             -1.0019
   XY=              0.9952   XZ=              0.6404   YZ=             -0.4595
 Octapole moment (field-independent basis, Debye-Ang**2):
  XXX=             -1.0499  YYY=             -2.3528  ZZZ=             -1.4846  XYY=             -0.0825
  XXY=             -2.9461  XXZ=             -0.4303  XZZ=             -0.0257  YZZ=             -0.2170
  YYZ=             -0.4544  XYZ=             -0.0978
 Hexadecapole moment (field-independent basis, Debye-Ang**3):
 XXXX=           -607.5816 YYYY=           -109.3909 ZZZZ=            -81.3588 XXXY=              3.9351
 XXXZ=              1.7357 YYYX=              1.7008 YYYZ=              1.6455 ZZZX=              1.7951
 ZZZY=             -0.8244 XXYY=           -119.9113 XXZZ=           -113.8139 YYZZ=            -30.1941
 XXYZ=              1.9117 YYXZ=              0.1705 ZZXY=              0.7102
 N-N= 1.925476347478D+02 E-N=-9.281328887646D+02  KE= 2.319308553019D+02
 Calling FoFJK, ICntrl=      2127 FMM=F ISym2X=0 I1Cent= 0 IOpClX= 0 NMat=1 NMatS=1 NMatT=0.
 ***** Axes restored to original set *****
 -------------------------------------------------------------------
 Center     Atomic                   Forces (Hartrees/Bohr)
 Number     Number              X              Y              Z
 -------------------------------------------------------------------
      1        6           0.000333684   -0.000137407    0.000137548
      2        6          -0.000523414    0.000022659   -0.000037379
      3        6          -0.000820082   -0.000803032    0.000379147
      4        6          -0.000114203   -0.000269647    0.000172904
      5        1           0.000600111    0.000137494    0.000128620
      6        1          -0.000239765    0.000022804    0.000246291
      7        1           0.000091790    0.000513056   -0.000198157
      8        1          -0.000651495   -0.000179543   -0.000403065
      9        1          -0.000202925   -0.000144819   -0.000114299
     10        1          -0.000103669    0.000557535   -0.000591662
     11        1           0.000960163    0.000820782   -0.000394532
     12        1           0.000437033   -0.000216479    0.000554803
     13        1          -0.000329554    0.000418093    0.000626316
     14        1          -0.000126695   -0.000582694   -0.000092711
     15        8           0.000689021   -0.000158802   -0.000413825
 -------------------------------------------------------------------
 Cartesian Forces:  Max     0.000960163 RMS     0.000426901

 GradGradGradGradGradGradGradGradGradGradGradGradGradGradGradGradGradGrad
 Berny optimization.
 Search for a local minimum.
 Step number   1 out of a maximum of    2
 All quantities printed in internal units (Hartrees-Bohrs-Radians)
 Second derivative matrix not updated -- first step.
 ITU=  0
     Eigenvalues ---    0.00158   0.00267   0.00347   0.00679   0.01129
     Eigenvalues ---    0.02067   0.03317   0.04234   0.04745   0.05167
     Eigenvalues ---    0.05266   0.05999   0.07431   0.07659   0.09142
     Eigenvalues ---    0.09805   0.12438   0.13216   0.13512   0.13813
     Eigenvalues ---    0.14331   0.15343   0.16281   0.19897   0.22244
     Eigenvalues ---    0.29986   0.32074   0.53060   0.58082   0.77437
     Eigenvalues ---    0.79588   0.85670   0.88521   0.96972   0.99790
     Eigenvalues ---    1.02866   1.04080   1.14269   1.32001
 Angle between quadratic step and forces=  74.78 degrees.
 Linear search not attempted -- first point.
 B after Tr=    -0.004364   -0.002101    0.000324
         Rot=    1.000000    0.000022   -0.000038    0.000303 Ang=   0.04 deg.
 Variable       Old X    -DE/DX   Delta X   Delta X   Delta X     New X
                                 (Linear)    (Quad)   (Total)
    X1       -5.42053   0.00033   0.00000   0.00883   0.00661  -5.41392
    Y1        3.54200  -0.00014   0.00000  -0.01384  -0.01266   3.52934
    Z1        0.09294   0.00014   0.00000  -0.01275  -0.01217   0.08077
    X2       -3.13806  -0.00052   0.00000  -0.02237  -0.02397  -3.16203
    Y2        4.32978   0.00002   0.00000   0.02173   0.02161   4.35139
    Z2        1.63937  -0.00004   0.00000   0.00948   0.00985   1.64922
    X3       -2.07396  -0.00082   0.00000   0.02104   0.02065  -2.05332
    Y3        5.61950  -0.00080   0.00000   0.00363   0.00309   5.62259
    Z3        7.40854   0.00038   0.00000   0.00082   0.00106   7.40960
    X4       -1.21635  -0.00011   0.00000  -0.01101  -0.01281  -1.22916
    Y4        3.54996  -0.00027   0.00000  -0.01676  -0.01787   3.53209
    Z4        5.60231   0.00017   0.00000   0.00852   0.00878   5.61109
    X5       -5.33310   0.00060   0.00000   0.06002   0.05656  -5.27653
    Y5        1.54346   0.00014   0.00000  -0.00964  -0.00856   1.53489
    Z5       -0.35150   0.00013   0.00000  -0.01978  -0.01912  -0.37062
    X6       -5.49865  -0.00024   0.00000   0.00128  -0.00043  -5.49908
    Y6        4.59796   0.00002   0.00000  -0.00657  -0.00541   4.59254
    Z6       -1.66495   0.00025   0.00000  -0.00741  -0.00687  -1.67182
    X7       -7.14629   0.00009   0.00000  -0.00693  -0.00888  -7.15517
    Y7        3.88139   0.00051   0.00000  -0.04907  -0.04679   3.83461
    Z7        1.14417  -0.00020   0.00000  -0.02775  -0.02705   1.11712
    X8       -3.22618  -0.00065   0.00000  -0.07319  -0.07354  -3.29972
    Y8        6.34015  -0.00018   0.00000   0.01715   0.01713   6.35729
    Z8        2.06645  -0.00040   0.00000   0.01737   0.01767   2.08411
    X9       -1.40279  -0.00020   0.00000  -0.01096  -0.01281  -1.41560
    Y9        4.01195  -0.00014   0.00000   0.06259   0.06137   4.07332
    Z9        0.57750  -0.00011   0.00000   0.01639   0.01664   0.59414
   X10       -3.77399  -0.00010   0.00000   0.00823   0.00758  -3.76641
   Y10        5.02062   0.00056   0.00000   0.04699   0.04754   5.06816
   Z10        8.38630  -0.00059   0.00000   0.00299   0.00338   8.38968
   X11       -0.63138   0.00096   0.00000   0.03725   0.03718  -0.59420
   Y11        5.98998   0.00082   0.00000  -0.00443  -0.00579   5.98419
   Z11        8.81887  -0.00039   0.00000  -0.01136  -0.01125   8.80762
   X12       -2.48205   0.00044   0.00000   0.05664   0.05723  -2.42482
   Y12        7.37260  -0.00022   0.00000   0.00567   0.00532   7.37792
   Z12        6.42491   0.00055   0.00000  -0.00712  -0.00694   6.41797
   X13        0.50440  -0.00033   0.00000  -0.00090  -0.00245   0.50195
   Y13        4.09698   0.00042   0.00000  -0.03315  -0.03535   4.06163
   Z13        4.61440   0.00063   0.00000   0.01983   0.01994   4.63434
   X14       -0.79309  -0.00013   0.00000  -0.03654  -0.03930  -0.83238
   Y14        1.85130  -0.00058   0.00000  -0.02533  -0.02664   1.82466
   Z14        6.66228  -0.00009   0.00000   0.00720   0.00750   6.66978
   X15       -3.10265   0.00069   0.00000  -0.00930  -0.01161  -3.11426
   Y15        2.90227  -0.00016   0.00000   0.00305   0.00301   2.90527
   Z15        3.86253  -0.00041   0.00000  -0.00185  -0.00142   3.86111
         Item               Value     Threshold  Converged?
 Maximum Force            0.000960     0.000450     NO 
 RMS     Force            0.000427     0.000300     NO 
 Maximum Displacement     0.073543     0.001800     NO 
 RMS     Displacement     0.026144     0.001200     NO 
 Predicted change in Energy=-6.599659D-05
 GradGradGradGradGradGradGradGradGradGradGradGradGradGradGradGradGradGrad

 1\1\GINC-MU01\Force\RHF\6-31G(d)\C4H10O1\LBL8\15-Sep-2025\0\\# hf/6-31
 G(d) force\\Force calculation\\0,1\C,-2.86841887,1.87434657,0.04918125
 \C,-1.66059027,2.29122189,0.86751523\C,-1.09749427,2.97371011,3.920429
 14\C,-0.64366472,1.87855693,2.96461523\H,-2.82215265,0.81676177,-0.186
 00405\H,-2.90976067,2.4331332,-0.88105187\H,-3.78165278,2.05394514,0.6
 0546827\H,-1.70721913,3.35506339,1.09351706\H,-0.74232552,2.123035,0.3
 0560146\H,-1.99710974,2.65679938,4.43783929\H,-0.33410992,3.16976324,4
 .66674677\H,-1.31344658,3.90141096,3.39991439\H,0.26691628,2.16802802,
 2.44183605\H,-0.41968272,0.97966384,3.52552438\O,-1.64185231,1.5358136
 3,2.04396232\\Version=ES64L-G16RevA.03\State=1-A\HF=-232.1420265\RMSD=
 9.715e-09\RMSF=4.269e-04\Dipole=0.3327117,0.399256,-0.0782682\Quadrupo
 le=0.0437886,-1.1371067,1.0933181,-0.4088527,0.7637346,-0.3424113\PG=C
 01 [X(C4H10O1)]\\@


 GETTING A SIMPLE ANSWER FROM A PROFESSOR IS LIKE
 GETTING A THIMBLE OF WATER FROM A FIRE HYDRANT.
     -- PROF. LEN SHAPIRO, NDSU
 Job cpu time:       0 days  0 hours  0 minutes  2.4 seconds.
 Elapsed time:       0 days  0 hours  0 minutes  2.4 seconds.
 File lengths (MBytes):  RWF=     22 Int=      0 D2E=      0 Chk=      3 Scr=      2
 Normal termination of Gaussian 16 at Mon Sep 15 21:32:31 2025.
