 Entering Gaussian System, Link 0=g16
 Input=gauss.gjf
 Output=gauss.log
 Initial command:
 /software/Applications/gaussian/G16.A03.AVX/g16/l1.exe "/home/lbl8/code/hartree-fock_geomopt-rev-3/example/Gau-3229955.inp" -scrdir="/home/lbl8/code/hartree-fock_geomopt-rev-3/example/"
 Entering Link 1 = /software/Applications/gaussian/G16.A03.AVX/g16/l1.exe PID=   3229957.
  
 Copyright (c) 1988,1990,1992,1993,1995,1998,2003,2009,2016,
            Gaussian, Inc.  All Rights Reserved.
  
 This is part of the Gaussian(R) 16 program.  It is based on
 the Gaussian(R) 09 system (copyright 2009, Gaussian, Inc.),
 the Gaussian(R) 03 system (copyright 2003, Gaussian, Inc.),
 the Gaussian(R) 98 system (copyright 1998, Gaussian, Inc.),
 the Gaussian(R) 94 system (copyright 1995, Gaussian, Inc.),
 the Gaussian 92(TM) system (copyright 1992, Gaussian, Inc.),
 the Gaussian 90(TM) system (copyright 1990, Gaussian, Inc.),
 the Gaussian 88(TM) system (copyright 1988, Gaussian, Inc.),
 the Gaussian 86(TM) system (copyright 1986, Carnegie Mellon
 University), and the Gaussian 82(TM) system (copyright 1983,
 Carnegie Mellon University). Gaussian is a federally registered
 trademark of Gaussian, Inc.
  
 This software contains proprietary and confidential information,
 including trade secrets, belonging to Gaussian, Inc.
  
 This software is provided under written license and may be
 used, copied, transmitted, or stored only in accord with that
 written license.
  
 The following legend is applicable only to US Government
 contracts under FAR:
  
                    RESTRICTED RIGHTS LEGEND
  
 Use, reproduction and disclosure by the US Government is
 subject to restrictions as set forth in subparagraphs (a)
 and (c) of the Commercial Computer Software - Restricted
 Rights clause in FAR 52.227-19.
  
 Gaussian, Inc.
 340 Quinnipiac St., Bldg. 40, Wallingford CT 06492
  
  
 ---------------------------------------------------------------
 Warning -- This program may not be used in any manner that
 competes with the business of Gaussian, Inc. or will provide
 assistance to any competitor of Gaussian, Inc.  The licensee
 of this program is prohibited from giving any competitor of
 Gaussian, Inc. access to this program.  By using this program,
 the user acknowledges that Gaussian, Inc. is engaged in the
 business of creating and licensing software in the field of
 computational chemistry and represents and warrants to the
 licensee that it is not a competitor of Gaussian, Inc. and that
 it will not use this program in any manner prohibited above.
 ---------------------------------------------------------------
  

 Cite this work as:
 Gaussian 16, Revision A.03,
 M. J. Frisch, G. W. Trucks, H. B. Schlegel, G. E. Scuseria, 
 M. A. Robb, J. R. Cheeseman, G. Scalmani, V. Barone, 
 G. A. Petersson, H. Nakatsuji, X. Li, M. Caricato, A. V. Marenich, 
 J. Bloino, B. G. Janesko, R. Gomperts, B. Mennucci, H. P. Hratchian, 
 J. V. Ortiz, A. F. Izmaylov, J. L. Sonnenberg, D. Williams-Young, 
 F. Ding, F. Lipparini, F. Egidi, J. Goings, B. Peng, A. Petrone, 
 T. Henderson, D. Ranasinghe, V. G. Zakrzewski, J. Gao, N. Rega, 
 G. Zheng, W. Liang, M. Hada, M. Ehara, K. Toyota, R. Fukuda, 
 J. Hasegawa, M. Ishida, T. Nakajima, Y. Honda, O. Kitao, H. Nakai, 
 T. Vreven, K. Throssell, J. A. Montgomery, Jr., J. E. Peralta, 
 F. Ogliaro, M. J. Bearpark, J. J. Heyd, E. N. Brothers, K. N. Kudin, 
 V. N. Staroverov, T. A. Keith, R. Kobayashi, J. Normand, 
 K. Raghavachari, A. P. Rendell, J. C. Burant, S. S. Iyengar, 
 J. Tomasi, M. Cossi, J. M. Millam, M. Klene, C. Adamo, R. Cammi, 
 J. W. Ochterski, R. L. Martin, K. Morokuma, O. Farkas, 
 J. B. Foresman, and D. J. Fox, Gaussian, Inc., Wallingford CT, 2016.
 
 ******************************************
 Gaussian 16:  ES64L-G16RevA.03 25-Dec-2016
                15-Sep-2025 
 ******************************************
 %chk=gauss.chk
 -------------------
 # hf/6-31G(d) force
 -------------------
 1/10=7,30=1,38=1/1,3;
 2/12=2,17=6,18=5,40=1/2;
 3/5=1,6=6,7=1,11=9,25=1,30=1,71=1/1,2,3;
 4//1;
 5/5=2,38=5/2;
 6/7=2,8=2,9=2,10=2,28=1/1;
 7/29=1/1,2,3,16;
 1/10=7,30=1/3;
 99//99;
 -----------------
 Force calculation
 -----------------
 Symbolic Z-matrix:
 Charge =  0 Multiplicity = 1
 C                    -2.70767   0.47128  -0.00967 
 C                    -2.05073   1.24646   1.14201 
 C                    -0.85988   0.52448   1.79346 
 F                     0.20804   0.65135   1.04476 
 F                    -3.44265   1.28458  -0.72941 
 F                    -3.47158  -0.48326   0.46674 
 F                    -1.61919   2.41028   0.67604 
 F                    -2.97291   1.46789   2.06833 
 F                    -0.61755   1.04583   2.97043 
 F                    -1.12591  -0.75394   1.94275 
 F                    -1.78455  -0.06249  -0.78057 
 

 GradGradGradGradGradGradGradGradGradGradGradGradGradGradGradGradGradGrad
 Berny optimization.
 Initialization pass.
 Trust Radius=3.00D-01 FncErr=1.00D-07 GrdErr=1.00D-07 EigMax=2.50D+02 EigMin=1.00D-04
 Number of steps in this run=      2 maximum allowed number of steps=      2.
 GradGradGradGradGradGradGradGradGradGradGradGradGradGradGradGradGradGrad

                          Input orientation:                          
 ---------------------------------------------------------------------
 Center     Atomic      Atomic             Coordinates (Angstroms)
 Number     Number       Type             X           Y           Z
 ---------------------------------------------------------------------
      1          6           0       -2.707668    0.471282   -0.009675
      2          6           0       -2.050729    1.246461    1.142009
      3          6           0       -0.859885    0.524483    1.793461
      4          9           0        0.208038    0.651350    1.044757
      5          9           0       -3.442646    1.284578   -0.729405
      6          9           0       -3.471585   -0.483261    0.466744
      7          9           0       -1.619190    2.410284    0.676042
      8          9           0       -2.972912    1.467895    2.068335
      9          9           0       -0.617550    1.045832    2.970433
     10          9           0       -1.125906   -0.753939    1.942753
     11          9           0       -1.784547   -0.062485   -0.780574
 ---------------------------------------------------------------------
                    Distance matrix (angstroms):
                    1          2          3          4          5
     1  C    0.000000
     2  C    1.535854   0.000000
     3  C    2.582331   1.537450   0.000000
     4  F    3.105735   2.337871   1.310386   0.000000
     5  F    1.311356   2.332611   3.689614   4.108056   0.000000
     6  F    1.312134   2.338109   3.097854   3.893721   2.134682
     7  F    2.326956   1.325834   2.319788   2.562921   2.562711
     8  F    2.319853   1.325720   2.330336   3.439898   2.842816
     9  F    3.685071   2.331821   1.309884   2.132004   4.661220
    10  F    2.795552   2.344801   1.314312   2.135565   4.082066
    11  F    1.315807   2.341051   2.797353   2.794957   2.136935
                    6          7          8          9         10
     6  F    0.000000
     7  F    3.442060   0.000000
     8  F    2.573087   2.158504   0.000000
     9  F    4.092933   2.851183   2.557274   0.000000
    10  F    2.784614   3.443863   2.892015   2.133947   0.000000
    11  F    2.139849   2.874659   3.445368   4.081704   2.885901
                   11
    11  F    0.000000
 Stoichiometry    C3F8
 Framework group  C1[X(C3F8)]
 Deg. of freedom    27
 Full point group                 C1      NOp   1
 Largest Abelian subgroup         C1      NOp   1
 Largest concise Abelian subgroup C1      NOp   1
                         Standard orientation:                         
 ---------------------------------------------------------------------
 Center     Atomic      Atomic             Coordinates (Angstroms)
 Number     Number       Type             X           Y           Z
 ---------------------------------------------------------------------
      1          6           0        1.290959   -0.231835    0.000191
      2          6           0        0.001415    0.602385   -0.000497
      3          6           0       -1.291370   -0.229756   -0.001448
      4          9           0       -1.536474   -0.682405    1.203601
      5          9           0        2.303044    0.516282    0.368513
      6          9           0        1.524965   -0.701940   -1.202281
      7          9           0       -0.006052    1.369731    1.080688
      8          9           0        0.011210    1.375032   -1.077741
      9          9           0       -2.296500    0.516347   -0.387246
     10          9           0       -1.179224   -1.248404   -0.824367
     11          9           0        1.178361   -1.238506    0.840001
 ---------------------------------------------------------------------
 Rotational constants (GHZ):           1.7115837           0.9836260           0.9237535
 Standard basis: 6-31G(d) (6D, 7F)
 There are   165 symmetry adapted cartesian basis functions of A   symmetry.
 There are   165 symmetry adapted basis functions of A   symmetry.
   165 basis functions,   308 primitive gaussians,   165 cartesian basis functions
    45 alpha electrons       45 beta electrons
       nuclear repulsion energy       807.3094017490 Hartrees.
 NAtoms=   11 NActive=   11 NUniq=   11 SFac= 1.00D+00 NAtFMM=   60 NAOKFM=F Big=F
 Integral buffers will be    131072 words long.
 Raffenetti 1 integral format.
 Two-electron integral symmetry is turned on.
 One-electron integrals computed using PRISM.
 NBasis=   165 RedAO= T EigKep=  1.20D-03  NBF=   165
 NBsUse=   165 1.00D-06 EigRej= -1.00D+00 NBFU=   165
 ExpMin= 1.69D-01 ExpMax= 7.00D+03 ExpMxC= 1.05D+03 IAcc=3 IRadAn=         5 AccDes= 0.00D+00
 Harris functional with IExCor=  205 and IRadAn=       5 diagonalized for initial guess.
 HarFok:  IExCor=  205 AccDes= 0.00D+00 IRadAn=         5 IDoV= 1 UseB2=F ITyADJ=14
 ICtDFT=  3500011 ScaDFX=  1.000000  1.000000  1.000000  1.000000
 FoFCou: FMM=F IPFlag=           0 FMFlag=      100000 FMFlg1=           0
         NFxFlg=           0 DoJE=T BraDBF=F KetDBF=T FulRan=T
         wScrn=  0.000000 ICntrl=       500 IOpCl=  0 I1Cent=   200000004 NGrid=           0
         NMat0=    1 NMatS0=      1 NMatT0=    0 NMatD0=    1 NMtDS0=    0 NMtDT0=    0
 Petite list used in FoFCou.
 Keep R1 ints in memory in canonical form, NReq=96071382.
 Requested convergence on RMS density matrix=1.00D-08 within 128 cycles.
 Requested convergence on MAX density matrix=1.00D-06.
 Requested convergence on             energy=1.00D-06.
 No special actions if energy rises.
 SCF Done:  E(RHF) =  -909.124144687     A.U. after   11 cycles
            NFock= 11  Conv=0.53D-08     -V/T= 2.0019

 **********************************************************************

            Population analysis using the SCF density.

 **********************************************************************

 Orbital symmetries:
       Occupied  (A) (A) (A) (A) (A) (A) (A) (A) (A) (A) (A) (A)
                 (A) (A) (A) (A) (A) (A) (A) (A) (A) (A) (A) (A)
                 (A) (A) (A) (A) (A) (A) (A) (A) (A) (A) (A) (A)
                 (A) (A) (A) (A) (A) (A) (A) (A) (A)
       Virtual   (A) (A) (A) (A) (A) (A) (A) (A) (A) (A) (A) (A)
                 (A) (A) (A) (A) (A) (A) (A) (A) (A) (A) (A) (A)
                 (A) (A) (A) (A) (A) (A) (A) (A) (A) (A) (A) (A)
                 (A) (A) (A) (A) (A) (A) (A) (A) (A) (A) (A) (A)
                 (A) (A) (A) (A) (A) (A) (A) (A) (A) (A) (A) (A)
                 (A) (A) (A) (A) (A) (A) (A) (A) (A) (A) (A) (A)
                 (A) (A) (A) (A) (A) (A) (A) (A) (A) (A) (A) (A)
                 (A) (A) (A) (A) (A) (A) (A) (A) (A) (A) (A) (A)
                 (A) (A) (A) (A) (A) (A) (A) (A) (A) (A) (A) (A)
                 (A) (A) (A) (A) (A) (A) (A) (A) (A) (A) (A) (A)
 The electronic state is 1-A.
 Alpha  occ. eigenvalues --  -26.37993 -26.37981 -26.37746 -26.37732 -26.37719
 Alpha  occ. eigenvalues --  -26.37700 -26.37462 -26.37445 -11.54758 -11.54732
 Alpha  occ. eigenvalues --  -11.47989  -1.78882  -1.77787  -1.73202  -1.68316
 Alpha  occ. eigenvalues --   -1.67792  -1.67561  -1.67516  -1.66225  -1.12451
 Alpha  occ. eigenvalues --   -1.02615  -0.95610  -0.90805  -0.88951  -0.87672
 Alpha  occ. eigenvalues --   -0.86561  -0.85574  -0.85510  -0.81441  -0.76241
 Alpha  occ. eigenvalues --   -0.75475  -0.74246  -0.74157  -0.73598  -0.73199
 Alpha  occ. eigenvalues --   -0.71817  -0.70240  -0.70209  -0.68453  -0.68445
 Alpha  occ. eigenvalues --   -0.67979  -0.67571  -0.67324  -0.63266  -0.55981
 Alpha virt. eigenvalues --    0.25320   0.25497   0.36855   0.38975   0.41980
 Alpha virt. eigenvalues --    0.44282   0.46864   0.49943   0.51428   0.55755
 Alpha virt. eigenvalues --    0.64277   0.64867   0.68981   0.69042   0.71432
 Alpha virt. eigenvalues --    0.76567   0.76870   0.85489   0.87554   0.88576
 Alpha virt. eigenvalues --    1.06757   1.11696   1.22487   1.23958   1.26016
 Alpha virt. eigenvalues --    1.30653   1.34111   1.34302   1.34923   1.37312
 Alpha virt. eigenvalues --    1.40619   1.45565   1.53063   1.53313   1.55170
 Alpha virt. eigenvalues --    1.56270   1.57913   1.58819   1.58965   1.62260
 Alpha virt. eigenvalues --    1.62564   1.63484   1.64100   1.64395   1.65076
 Alpha virt. eigenvalues --    1.66338   1.68442   1.70489   1.71282   1.76834
 Alpha virt. eigenvalues --    1.79303   1.83711   1.84215   1.87839   1.89505
 Alpha virt. eigenvalues --    1.95074   1.97435   1.97822   2.02938   2.04872
 Alpha virt. eigenvalues --    2.05243   2.06443   2.06552   2.09906   2.10195
 Alpha virt. eigenvalues --    2.10397   2.16763   2.19155   2.22023   2.27184
 Alpha virt. eigenvalues --    2.29062   2.30299   2.30470   2.31986   2.32385
 Alpha virt. eigenvalues --    2.37436   2.37978   2.39811   2.41931   2.42726
 Alpha virt. eigenvalues --    2.44760   2.45435   2.52514   2.55976   2.60975
 Alpha virt. eigenvalues --    2.62063   2.66011   2.67213   2.74614   2.79271
 Alpha virt. eigenvalues --    2.79591   2.81785   2.93261   2.95635   3.03187
 Alpha virt. eigenvalues --    3.12269   3.15503   3.17257   3.25296   3.28671
 Alpha virt. eigenvalues --    3.29285   3.38952   3.41573   3.42450   3.43383
 Alpha virt. eigenvalues --    3.44938   3.45849   3.47047   3.54735   4.54839
 Alpha virt. eigenvalues --    4.63483   4.71160   4.81798   5.09648   5.26320
 Alpha virt. eigenvalues --    5.54480   5.69424   6.03989   6.05743   6.21118
          Condensed to atoms (all electrons):
               1          2          3          4          5          6
     1  C    3.777835   0.369440  -0.066552   0.001424   0.294674   0.282510
     2  C    0.369440   4.435974   0.369822  -0.035696  -0.024820  -0.035488
     3  C   -0.066552   0.369822   3.777205   0.283588   0.001451   0.001478
     4  F    0.001424  -0.035696   0.283588   9.153886  -0.000003   0.000001
     5  F    0.294674  -0.024820   0.001451  -0.000003   9.136920  -0.034530
     6  F    0.282510  -0.035488   0.001478   0.000001  -0.034530   9.155206
     7  F   -0.018049   0.216911  -0.019281   0.001070   0.000431   0.000348
     8  F   -0.019312   0.217588  -0.017843   0.000346   0.000237   0.001082
     9  F    0.001455  -0.025034   0.295013  -0.034777  -0.000001  -0.000003
    10  F    0.012158  -0.040292   0.278847  -0.033348   0.000001  -0.000134
    11  F    0.277819  -0.040515   0.012164  -0.000122  -0.034022  -0.032775
               7          8          9         10         11
     1  C   -0.018049  -0.019312   0.001455   0.012158   0.277819
     2  C    0.216911   0.217588  -0.025034  -0.040292  -0.040515
     3  C   -0.019281  -0.017843   0.295013   0.278847   0.012164
     4  F    0.001070   0.000346  -0.034777  -0.033348  -0.000122
     5  F    0.000431   0.000237  -0.000001   0.000001  -0.034022
     6  F    0.000348   0.001082  -0.000003  -0.000134  -0.032775
     7  F    9.207739  -0.029113   0.000230   0.000368   0.000545
     8  F   -0.029113   9.206756   0.000406   0.000507   0.000369
     9  F    0.000230   0.000406   9.136538  -0.034365   0.000001
    10  F    0.000368   0.000507  -0.034365   9.160227  -0.001166
    11  F    0.000545   0.000369   0.000001  -0.001166   9.161629
 Mulliken charges:
               1
     1  C    1.086599
     2  C    0.592111
     3  C    1.084108
     4  F   -0.336370
     5  F   -0.340339
     6  F   -0.337695
     7  F   -0.361198
     8  F   -0.361023
     9  F   -0.339463
    10  F   -0.342803
    11  F   -0.343927
 Sum of Mulliken charges =  -0.00000
 Mulliken charges with hydrogens summed into heavy atoms:
               1
     1  C    1.086599
     2  C    0.592111
     3  C    1.084108
     4  F   -0.336370
     5  F   -0.340339
     6  F   -0.337695
     7  F   -0.361198
     8  F   -0.361023
     9  F   -0.339463
    10  F   -0.342803
    11  F   -0.343927
 Electronic spatial extent (au):  <R**2>=           1278.7712
 Charge=             -0.0000 electrons
 Dipole moment (field-independent basis, Debye):
    X=             -0.0013    Y=             -0.0571    Z=             -0.0058  Tot=              0.0574
 Quadrupole moment (field-independent basis, Debye-Ang):
   XX=            -56.8012   YY=            -57.2552   ZZ=            -57.2813
   XY=             -0.0061   XZ=              0.0272   YZ=             -0.0007
 Traceless Quadrupole moment (field-independent basis, Debye-Ang):
   XX=              0.3114   YY=             -0.1426   ZZ=             -0.1687
   XY=             -0.0061   XZ=              0.0272   YZ=             -0.0007
 Octapole moment (field-independent basis, Debye-Ang**2):
  XXX=             -0.0499  YYY=             -1.2104  ZZZ=             -0.0255  XYY=             -0.0174
  XXY=             -1.8115  XXZ=              0.0202  XZZ=              0.0010  YZZ=             -0.1986
  YYZ=              0.0359  XYZ=             -0.7696
 Hexadecapole moment (field-independent basis, Debye-Ang**3):
 XXXX=           -664.9928 YYYY=           -287.0750 ZZZZ=           -227.6256 XXXY=             -0.0271
 XXXZ=             -1.9428 YYYX=             -0.0109 YYYZ=             -0.0055 ZZZX=              2.3557
 ZZZY=             -0.0053 XXYY=           -156.7421 XXZZ=           -150.4382 YYZZ=            -88.6961
 XXYZ=              0.0241 YYXZ=             -1.2897 ZZXY=              0.0555
 N-N= 8.073094017490D+02 E-N=-3.781027287873D+03  KE= 9.073988166623D+02
 Calling FoFJK, ICntrl=      2127 FMM=F ISym2X=0 I1Cent= 0 IOpClX= 0 NMat=1 NMatS=1 NMatT=0.
 ***** Axes restored to original set *****
 -------------------------------------------------------------------
 Center     Atomic                   Forces (Hartrees/Bohr)
 Number     Number              X              Y              Z
 -------------------------------------------------------------------
      1        6          -0.000386733   -0.000643005   -0.000810177
      2        6           0.000111191    0.000293275    0.000095148
      3        6          -0.000237502   -0.000034725    0.000091189
      4        9          -0.000297055   -0.000834051   -0.000120350
      5        9           0.000746718   -0.001142756    0.001676249
      6        9           0.001876503    0.000956597   -0.001386731
      7        9          -0.000029166   -0.000310523    0.000380393
      8        9           0.000229202   -0.000307566   -0.000558113
      9        9           0.000039842    0.000687748   -0.000440581
     10        9          -0.000380702    0.000259285    0.000796939
     11        9          -0.001672298    0.001075722    0.000276034
 -------------------------------------------------------------------
 Cartesian Forces:  Max     0.001876503 RMS     0.000768121

 GradGradGradGradGradGradGradGradGradGradGradGradGradGradGradGradGradGrad
 Berny optimization.
 Search for a local minimum.
 Step number   1 out of a maximum of    2
 All quantities printed in internal units (Hartrees-Bohrs-Radians)
 Second derivative matrix not updated -- first step.
 ITU=  0
     Eigenvalues ---    0.00170   0.00259   0.01355   0.03396   0.05303
     Eigenvalues ---    0.05341   0.05383   0.06815   0.08520   0.09224
     Eigenvalues ---    0.12498   0.14492   0.15157   0.15722   0.18310
     Eigenvalues ---    0.21479   0.24602   0.36702   0.65089   1.01424
     Eigenvalues ---    1.20668   1.30677   1.47868   1.62249   1.63332
     Eigenvalues ---    1.68111   1.73214
 Quadratic step=1.168D+00 exceeds max=3.000D-01 adjusted using Lamda=-4.931D-03.
 Angle between NR and scaled steps=   3.72 degrees.
 Angle between quadratic step and forces=  61.24 degrees.
 Linear search not attempted -- first point.
 B after Tr=    -0.000367    0.000156   -0.000552
         Rot=    1.000000    0.000034   -0.000095   -0.000028 Ang=   0.01 deg.
 Variable       Old X    -DE/DX   Delta X   Delta X   Delta X     New X
                                 (Linear)    (Quad)   (Total)
    X1       -5.11675  -0.00039   0.00000   0.01536   0.01494  -5.10181
    Y1        0.89059  -0.00064   0.00000   0.00986   0.00972   0.90031
    Z1       -0.01828  -0.00081   0.00000  -0.01706  -0.01670  -0.03498
    X2       -3.87532   0.00011   0.00000   0.00255   0.00246  -3.87286
    Y2        2.35547   0.00029   0.00000  -0.00509  -0.00501   2.35046
    Z2        2.15808   0.00010   0.00000  -0.00077  -0.00075   2.15734
    X3       -1.62495  -0.00024   0.00000  -0.01212  -0.01190  -1.63684
    Y3        0.99113  -0.00003   0.00000  -0.00950  -0.00921   0.98192
    Z3        3.38915   0.00009   0.00000   0.01628   0.01597   3.40512
    X4        0.39313  -0.00030   0.00000  -0.02937  -0.02943   0.36370
    Y4        1.23087  -0.00083   0.00000  -0.12095  -0.12064   1.11023
    Z4        1.97430  -0.00012   0.00000  -0.02679  -0.02748   1.94682
    X5       -6.50566   0.00075   0.00000  -0.06155  -0.06230  -6.56796
    Y5        2.42750  -0.00114   0.00000   0.00069   0.00038   2.42788
    Z5       -1.37838   0.00168   0.00000   0.05698   0.05752  -1.32086
    X6       -6.56034   0.00188   0.00000   0.09487   0.09472  -6.46563
    Y6       -0.91323   0.00096   0.00000  -0.06349  -0.06364  -0.97687
    Z6        0.88202  -0.00139   0.00000  -0.04587  -0.04513   0.83689
    X7       -3.05983  -0.00003   0.00000   0.01058   0.01020  -3.04963
    Y7        4.55478  -0.00031   0.00000  -0.00129  -0.00122   4.55356
    Z7        1.27753   0.00038   0.00000   0.01802   0.01774   1.29527
    X8       -5.61799   0.00023   0.00000  -0.01133  -0.01111  -5.62910
    Y8        2.77392  -0.00031   0.00000  -0.01291  -0.01281   2.76111
    Z8        3.90859  -0.00056   0.00000  -0.01409  -0.01376   3.89483
    X9       -1.16700   0.00004   0.00000   0.04611   0.04669  -1.12031
    Y9        1.97634   0.00069   0.00000   0.07722   0.07769   2.05402
    Z9        5.61331  -0.00044   0.00000  -0.03440  -0.03487   5.57843
   X10       -2.12765  -0.00038   0.00000  -0.06840  -0.06797  -2.19562
   Y10       -1.42474   0.00026   0.00000   0.01565   0.01594  -1.40880
   Z10        3.67127   0.00080   0.00000   0.12929   0.12925   3.80052
   X11       -3.37230  -0.00167   0.00000   0.01437   0.01371  -3.35860
   Y11       -0.11808   0.00108   0.00000   0.10894   0.10880  -0.00928
   Z11       -1.47507   0.00028   0.00000  -0.08188  -0.08179  -1.55686
         Item               Value     Threshold  Converged?
 Maximum Force            0.001877     0.000450     NO 
 RMS     Force            0.000768     0.000300     NO 
 Maximum Displacement     0.129254     0.001800     NO 
 RMS     Displacement     0.052269     0.001200     NO 
 Predicted change in Energy=-5.410118D-04
 GradGradGradGradGradGradGradGradGradGradGradGradGradGradGradGradGradGrad

 1\1\GINC-MU01\Force\RHF\6-31G(d)\C3F8\LBL8\15-Sep-2025\0\\# hf/6-31G(d
 ) force\\Force calculation\\0,1\C,-2.70766828,0.47128171,-0.00967478\C
 ,-2.05072903,1.24646127,1.14200879\C,-0.85988483,0.52448252,1.79346053
 \F,0.20803765,0.65134951,1.04475688\F,-3.44264603,1.28457805,-0.729405
 14\F,-3.47158479,-0.48326084,0.46674449\F,-1.61918993,2.41028408,0.676
 04196\F,-2.97291162,1.46789496,2.06833482\F,-0.61754992,1.04583156,2.9
 7043345\F,-1.12590566,-0.7539392,1.94275271\F,-1.78454654,-0.06248541,
 -0.7805743\\Version=ES64L-G16RevA.03\State=1-A\HF=-909.1241447\RMSD=5.
 338e-09\RMSF=7.681e-04\Dipole=0.006114,-0.0211912,-0.0049402\Quadrupol
 e=0.0397919,-0.1102714,0.0704796,-0.0043473,0.1768834,0.0074865\PG=C01
  [X(C3F8)]\\@


 ONE THORN OF EXPERIENCE IS WORTH A WHOLE WILDERNESS OF
 WARNING....  LOWELL - AMONG MY BOOKS
 Job cpu time:       0 days  0 hours  0 minutes  7.6 seconds.
 Elapsed time:       0 days  0 hours  0 minutes  7.8 seconds.
 File lengths (MBytes):  RWF=     28 Int=      0 D2E=      0 Chk=      4 Scr=      2
 Normal termination of Gaussian 16 at Mon Sep 15 21:53:21 2025.
