 Entering Gaussian System, Link 0=g16
 Input=gauss.gjf
 Output=gauss.log
 Initial command:
 /software/Applications/gaussian/G16.A03.AVX/g16/l1.exe "/home/lbl8/code/hartree-fock_geomopt-rev-3/example/Gau-3232124.inp" -scrdir="/home/lbl8/code/hartree-fock_geomopt-rev-3/example/"
 Entering Link 1 = /software/Applications/gaussian/G16.A03.AVX/g16/l1.exe PID=   3232126.
  
 Copyright (c) 1988,1990,1992,1993,1995,1998,2003,2009,2016,
            Gaussian, Inc.  All Rights Reserved.
  
 This is part of the Gaussian(R) 16 program.  It is based on
 the Gaussian(R) 09 system (copyright 2009, Gaussian, Inc.),
 the Gaussian(R) 03 system (copyright 2003, Gaussian, Inc.),
 the Gaussian(R) 98 system (copyright 1998, Gaussian, Inc.),
 the Gaussian(R) 94 system (copyright 1995, Gaussian, Inc.),
 the Gaussian 92(TM) system (copyright 1992, Gaussian, Inc.),
 the Gaussian 90(TM) system (copyright 1990, Gaussian, Inc.),
 the Gaussian 88(TM) system (copyright 1988, Gaussian, Inc.),
 the Gaussian 86(TM) system (copyright 1986, Carnegie Mellon
 University), and the Gaussian 82(TM) system (copyright 1983,
 Carnegie Mellon University). Gaussian is a federally registered
 trademark of Gaussian, Inc.
  
 This software contains proprietary and confidential information,
 including trade secrets, belonging to Gaussian, Inc.
  
 This software is provided under written license and may be
 used, copied, transmitted, or stored only in accord with that
 written license.
  
 The following legend is applicable only to US Government
 contracts under FAR:
  
                    RESTRICTED RIGHTS LEGEND
  
 Use, reproduction and disclosure by the US Government is
 subject to restrictions as set forth in subparagraphs (a)
 and (c) of the Commercial Computer Software - Restricted
 Rights clause in FAR 52.227-19.
  
 Gaussian, Inc.
 340 Quinnipiac St., Bldg. 40, Wallingford CT 06492
  
  
 ---------------------------------------------------------------
 Warning -- This program may not be used in any manner that
 competes with the business of Gaussian, Inc. or will provide
 assistance to any competitor of Gaussian, Inc.  The licensee
 of this program is prohibited from giving any competitor of
 Gaussian, Inc. access to this program.  By using this program,
 the user acknowledges that Gaussian, Inc. is engaged in the
 business of creating and licensing software in the field of
 computational chemistry and represents and warrants to the
 licensee that it is not a competitor of Gaussian, Inc. and that
 it will not use this program in any manner prohibited above.
 ---------------------------------------------------------------
  

 Cite this work as:
 Gaussian 16, Revision A.03,
 M. J. Frisch, G. W. Trucks, H. B. Schlegel, G. E. Scuseria, 
 M. A. Robb, J. R. Cheeseman, G. Scalmani, V. Barone, 
 G. A. Petersson, H. Nakatsuji, X. Li, M. Caricato, A. V. Marenich, 
 J. Bloino, B. G. Janesko, R. Gomperts, B. Mennucci, H. P. Hratchian, 
 J. V. Ortiz, A. F. Izmaylov, J. L. Sonnenberg, D. Williams-Young, 
 F. Ding, F. Lipparini, F. Egidi, J. Goings, B. Peng, A. Petrone, 
 T. Henderson, D. Ranasinghe, V. G. Zakrzewski, J. Gao, N. Rega, 
 G. Zheng, W. Liang, M. Hada, M. Ehara, K. Toyota, R. Fukuda, 
 J. Hasegawa, M. Ishida, T. Nakajima, Y. Honda, O. Kitao, H. Nakai, 
 T. Vreven, K. Throssell, J. A. Montgomery, Jr., J. E. Peralta, 
 F. Ogliaro, M. J. Bearpark, J. J. Heyd, E. N. Brothers, K. N. Kudin, 
 V. N. Staroverov, T. A. Keith, R. Kobayashi, J. Normand, 
 K. Raghavachari, A. P. Rendell, J. C. Burant, S. S. Iyengar, 
 J. Tomasi, M. Cossi, J. M. Millam, M. Klene, C. Adamo, R. Cammi, 
 J. W. Ochterski, R. L. Martin, K. Morokuma, O. Farkas, 
 J. B. Foresman, and D. J. Fox, Gaussian, Inc., Wallingford CT, 2016.
 
 ******************************************
 Gaussian 16:  ES64L-G16RevA.03 25-Dec-2016
                15-Sep-2025 
 ******************************************
 %chk=gauss.chk
 -------------------
 # hf/6-31G(d) force
 -------------------
 1/10=7,30=1,38=1/1,3;
 2/12=2,17=6,18=5,40=1/2;
 3/5=1,6=6,7=1,11=9,25=1,30=1,71=1/1,2,3;
 4//1;
 5/5=2,38=5/2;
 6/7=2,8=2,9=2,10=2,28=1/1;
 7/29=1/1,2,3,16;
 1/10=7,30=1/3;
 99//99;
 -----------------
 Force calculation
 -----------------
 Symbolic Z-matrix:
 Charge =  0 Multiplicity = 1
 C                    -2.67409   0.4973   -0.05412 
 C                    -2.04202   1.228     1.13508 
 C                    -0.89228   0.49849   1.83657 
 F                     0.11733   0.33166   1.01568 
 F                    -3.58974   1.27017  -0.5877 
 F                    -3.2375   -0.61989   0.34043 
 F                    -1.57847   2.39334   0.70242 
 F                    -2.99624   1.4418    2.03114 
 F                    -0.49557   1.21685   2.85903 
 F                    -1.28999  -0.67514   2.26763 
 F                    -1.76602   0.2199   -0.96129 
 

 GradGradGradGradGradGradGradGradGradGradGradGradGradGradGradGradGradGrad
 Berny optimization.
 Initialization pass.
 Trust Radius=3.00D-01 FncErr=1.00D-07 GrdErr=1.00D-07 EigMax=2.50D+02 EigMin=1.00D-04
 Number of steps in this run=      2 maximum allowed number of steps=      2.
 GradGradGradGradGradGradGradGradGradGradGradGradGradGradGradGradGradGrad

                          Input orientation:                          
 ---------------------------------------------------------------------
 Center     Atomic      Atomic             Coordinates (Angstroms)
 Number     Number       Type             X           Y           Z
 ---------------------------------------------------------------------
      1          6           0       -2.674087    0.497299   -0.054118
      2          6           0       -2.042022    1.227999    1.135077
      3          6           0       -0.892280    0.498492    1.836570
      4          9           0        0.117331    0.331663    1.015684
      5          9           0       -3.589739    1.270170   -0.587698
      6          9           0       -3.237501   -0.619894    0.340434
      7          9           0       -1.578469    2.393339    0.702424
      8          9           0       -2.996237    1.441799    2.031140
      9          9           0       -0.495568    1.216845    2.859029
     10          9           0       -1.289992   -0.675138    2.267629
     11          9           0       -1.766016    0.219904   -0.961292
 ---------------------------------------------------------------------
                    Distance matrix (angstroms):
                    1          2          3          4          5
     1  C    0.000000
     2  C    1.532192   0.000000
     3  C    2.597987   1.531724   0.000000
     4  F    2.993981   2.341042   1.311869   0.000000
     5  F    1.311661   2.316281   3.707943   4.146564   0.000000
     6  F    1.311955   2.339943   2.998211   3.551945   2.134910
     7  F    2.316829   1.326683   2.312485   2.687820   2.640289
     8  F    2.311744   1.326335   2.313940   3.458013   2.690728
     9  F    3.708115   2.315957   1.311044   2.134740   4.632134
    10  F    2.946326   2.338836   1.312018   2.135783   4.150416
    11  F    1.313205   2.342476   2.944326   2.732749   2.137427
                    6          7          8          9         10
     6  F    0.000000
     7  F    3.458756   0.000000
     8  F    2.677176   2.163557   0.000000
     9  F    4.151521   2.684727   2.643738   0.000000
    10  F    2.740424   3.456680   2.729216   2.135524   0.000000
    11  F    2.136591   2.743527   3.458485   4.147624   3.384321
                   11
    11  F    0.000000
 Stoichiometry    C3F8
 Framework group  C1[X(C3F8)]
 Deg. of freedom    27
 Full point group                 C1      NOp   1
 Largest Abelian subgroup         C1      NOp   1
 Largest concise Abelian subgroup C1      NOp   1
                         Standard orientation:                         
 ---------------------------------------------------------------------
 Center     Atomic      Atomic             Coordinates (Angstroms)
 Number     Number       Type             X           Y           Z
 ---------------------------------------------------------------------
      1          6           0       -1.299111   -0.231638   -0.001185
      2          6           0        0.000331    0.580188   -0.001405
      3          6           0        1.298875   -0.232190    0.000577
      4          9           0        1.394419   -0.951986   -1.092018
      5          9           0       -2.314839    0.595284   -0.071551
      6          9           0       -1.399798   -0.936429    1.100795
      7          9           0        0.004822    1.348734   -1.082795
      8          9           0       -0.002471    1.347065    1.080749
      9          9           0        2.315520    0.593717    0.056672
     10          9           0        1.338398   -1.029731    1.041615
     11          9           0       -1.336116   -1.044226   -1.032125
 ---------------------------------------------------------------------
 Rotational constants (GHZ):           1.7208298           0.9767117           0.9208645
 Standard basis: 6-31G(d) (6D, 7F)
 There are   165 symmetry adapted cartesian basis functions of A   symmetry.
 There are   165 symmetry adapted basis functions of A   symmetry.
   165 basis functions,   308 primitive gaussians,   165 cartesian basis functions
    45 alpha electrons       45 beta electrons
       nuclear repulsion energy       806.8481902099 Hartrees.
 NAtoms=   11 NActive=   11 NUniq=   11 SFac= 1.00D+00 NAtFMM=   60 NAOKFM=F Big=F
 Integral buffers will be    131072 words long.
 Raffenetti 1 integral format.
 Two-electron integral symmetry is turned on.
 One-electron integrals computed using PRISM.
 NBasis=   165 RedAO= T EigKep=  1.55D-03  NBF=   165
 NBsUse=   165 1.00D-06 EigRej= -1.00D+00 NBFU=   165
 ExpMin= 1.69D-01 ExpMax= 7.00D+03 ExpMxC= 1.05D+03 IAcc=3 IRadAn=         5 AccDes= 0.00D+00
 Harris functional with IExCor=  205 and IRadAn=       5 diagonalized for initial guess.
 HarFok:  IExCor=  205 AccDes= 0.00D+00 IRadAn=         5 IDoV= 1 UseB2=F ITyADJ=14
 ICtDFT=  3500011 ScaDFX=  1.000000  1.000000  1.000000  1.000000
 FoFCou: FMM=F IPFlag=           0 FMFlag=      100000 FMFlg1=           0
         NFxFlg=           0 DoJE=T BraDBF=F KetDBF=T FulRan=T
         wScrn=  0.000000 ICntrl=       500 IOpCl=  0 I1Cent=   200000004 NGrid=           0
         NMat0=    1 NMatS0=      1 NMatT0=    0 NMatD0=    1 NMtDS0=    0 NMtDT0=    0
 Petite list used in FoFCou.
 Keep R1 ints in memory in canonical form, NReq=96071382.
 Requested convergence on RMS density matrix=1.00D-08 within 128 cycles.
 Requested convergence on MAX density matrix=1.00D-06.
 Requested convergence on             energy=1.00D-06.
 No special actions if energy rises.
 SCF Done:  E(RHF) =  -909.125474357     A.U. after   11 cycles
            NFock= 11  Conv=0.52D-08     -V/T= 2.0019

 **********************************************************************

            Population analysis using the SCF density.

 **********************************************************************

 Orbital symmetries:
       Occupied  (A) (A) (A) (A) (A) (A) (A) (A) (A) (A) (A) (A)
                 (A) (A) (A) (A) (A) (A) (A) (A) (A) (A) (A) (A)
                 (A) (A) (A) (A) (A) (A) (A) (A) (A) (A) (A) (A)
                 (A) (A) (A) (A) (A) (A) (A) (A) (A)
       Virtual   (A) (A) (A) (A) (A) (A) (A) (A) (A) (A) (A) (A)
                 (A) (A) (A) (A) (A) (A) (A) (A) (A) (A) (A) (A)
                 (A) (A) (A) (A) (A) (A) (A) (A) (A) (A) (A) (A)
                 (A) (A) (A) (A) (A) (A) (A) (A) (A) (A) (A) (A)
                 (A) (A) (A) (A) (A) (A) (A) (A) (A) (A) (A) (A)
                 (A) (A) (A) (A) (A) (A) (A) (A) (A) (A) (A) (A)
                 (A) (A) (A) (A) (A) (A) (A) (A) (A) (A) (A) (A)
                 (A) (A) (A) (A) (A) (A) (A) (A) (A) (A) (A) (A)
                 (A) (A) (A) (A) (A) (A) (A) (A) (A) (A) (A) (A)
                 (A) (A) (A) (A) (A) (A) (A) (A) (A) (A) (A) (A)
 The electronic state is 1-A.
 Alpha  occ. eigenvalues --  -26.37929 -26.37928 -26.37860 -26.37856 -26.37723
 Alpha  occ. eigenvalues --  -26.37723 -26.37492 -26.37490 -11.54755 -11.54731
 Alpha  occ. eigenvalues --  -11.47920  -1.78908  -1.77855  -1.73176  -1.68389
 Alpha  occ. eigenvalues --   -1.67731  -1.67555  -1.67540  -1.66399  -1.12515
 Alpha  occ. eigenvalues --   -1.02796  -0.95723  -0.90802  -0.88818  -0.87805
 Alpha  occ. eigenvalues --   -0.86526  -0.85661  -0.85502  -0.81561  -0.76138
 Alpha  occ. eigenvalues --   -0.75287  -0.74797  -0.73645  -0.73425  -0.73111
 Alpha  occ. eigenvalues --   -0.72328  -0.70297  -0.70168  -0.68548  -0.68537
 Alpha  occ. eigenvalues --   -0.68395  -0.67435  -0.67268  -0.63286  -0.56011
 Alpha virt. eigenvalues --    0.25262   0.26036   0.37990   0.38938   0.41900
 Alpha virt. eigenvalues --    0.44311   0.45779   0.49074   0.51629   0.55343
 Alpha virt. eigenvalues --    0.64083   0.64911   0.69181   0.69307   0.70402
 Alpha virt. eigenvalues --    0.76516   0.77911   0.85326   0.87104   0.88273
 Alpha virt. eigenvalues --    1.10346   1.11273   1.20210   1.24794   1.26752
 Alpha virt. eigenvalues --    1.30055   1.33404   1.34866   1.35915   1.37168
 Alpha virt. eigenvalues --    1.42150   1.44147   1.50476   1.55303   1.55660
 Alpha virt. eigenvalues --    1.56282   1.56536   1.59554   1.60340   1.61436
 Alpha virt. eigenvalues --    1.62832   1.63826   1.64024   1.64354   1.65443
 Alpha virt. eigenvalues --    1.67370   1.67591   1.70546   1.71503   1.73501
 Alpha virt. eigenvalues --    1.79017   1.84682   1.86832   1.87680   1.87980
 Alpha virt. eigenvalues --    1.95959   1.96596   1.97348   2.00162   2.04414
 Alpha virt. eigenvalues --    2.05053   2.06715   2.08091   2.09431   2.09998
 Alpha virt. eigenvalues --    2.10587   2.15620   2.18347   2.21626   2.25682
 Alpha virt. eigenvalues --    2.29290   2.30474   2.30574   2.30866   2.31440
 Alpha virt. eigenvalues --    2.37490   2.37731   2.38534   2.41511   2.42978
 Alpha virt. eigenvalues --    2.43376   2.47212   2.48298   2.54174   2.62871
 Alpha virt. eigenvalues --    2.65789   2.65975   2.70197   2.71534   2.78872
 Alpha virt. eigenvalues --    2.80901   2.81275   2.94832   3.02135   3.02335
 Alpha virt. eigenvalues --    3.15322   3.16589   3.18497   3.27722   3.27828
 Alpha virt. eigenvalues --    3.28348   3.37838   3.40922   3.42240   3.42835
 Alpha virt. eigenvalues --    3.46382   3.49993   3.50703   3.53301   4.56287
 Alpha virt. eigenvalues --    4.66168   4.76102   4.84169   5.08378   5.20992
 Alpha virt. eigenvalues --    5.61431   5.69649   6.08544   6.31440   6.37938
          Condensed to atoms (all electrons):
               1          2          3          4          5          6
     1  C    3.779689   0.365407  -0.059267   0.004550   0.294987   0.281822
     2  C    0.365407   4.439554   0.365593  -0.038102  -0.026221  -0.038289
     3  C   -0.059267   0.365593   3.779573   0.281883   0.001528   0.004519
     4  F    0.004550  -0.038102   0.281883   9.156851  -0.000001  -0.000089
     5  F    0.294987  -0.026221   0.001528  -0.000001   9.140015  -0.034541
     6  F    0.281822  -0.038289   0.004519  -0.000089  -0.034541   9.156931
     7  F   -0.018857   0.216549  -0.019361   0.001092   0.000568   0.000352
     8  F   -0.019438   0.215794  -0.019026   0.000354   0.000519   0.001129
     9  F    0.001527  -0.026257   0.295346  -0.034557  -0.000001  -0.000001
    10  F    0.007034  -0.039914   0.280452  -0.033291  -0.000000  -0.000258
    11  F    0.280264  -0.039465   0.007036  -0.000283  -0.034164  -0.033252
               7          8          9         10         11
     1  C   -0.018857  -0.019438   0.001527   0.007034   0.280264
     2  C    0.216549   0.215794  -0.026257  -0.039914  -0.039465
     3  C   -0.019361  -0.019026   0.295346   0.280452   0.007036
     4  F    0.001092   0.000354  -0.034557  -0.033291  -0.000283
     5  F    0.000568   0.000519  -0.000001  -0.000000  -0.034164
     6  F    0.000352   0.001129  -0.000001  -0.000258  -0.033252
     7  F    9.210053  -0.027950   0.000523   0.000361   0.000930
     8  F   -0.027950   9.210818   0.000575   0.000989   0.000358
     9  F    0.000523   0.000575   9.139571  -0.034350  -0.000000
    10  F    0.000361   0.000989  -0.034350   9.158513  -0.000244
    11  F    0.000930   0.000358  -0.000000  -0.000244   9.158709
 Mulliken charges:
               1
     1  C    1.082282
     2  C    0.605349
     3  C    1.081725
     4  F   -0.338407
     5  F   -0.342688
     6  F   -0.338323
     7  F   -0.364261
     8  F   -0.364123
     9  F   -0.342375
    10  F   -0.339291
    11  F   -0.339888
 Sum of Mulliken charges =  -0.00000
 Mulliken charges with hydrogens summed into heavy atoms:
               1
     1  C    1.082282
     2  C    0.605349
     3  C    1.081725
     4  F   -0.338407
     5  F   -0.342688
     6  F   -0.338323
     7  F   -0.364261
     8  F   -0.364123
     9  F   -0.342375
    10  F   -0.339291
    11  F   -0.339888
 Electronic spatial extent (au):  <R**2>=           1281.9875
 Charge=             -0.0000 electrons
 Dipole moment (field-independent basis, Debye):
    X=              0.0014    Y=             -0.1353    Z=             -0.0031  Tot=              0.1353
 Quadrupole moment (field-independent basis, Debye-Ang):
   XX=            -56.8307   YY=            -57.2318   ZZ=            -57.2922
   XY=             -0.0022   XZ=              0.0141   YZ=             -0.0022
 Traceless Quadrupole moment (field-independent basis, Debye-Ang):
   XX=              0.2875   YY=             -0.1136   ZZ=             -0.1739
   XY=             -0.0022   XZ=              0.0141   YZ=             -0.0022
 Octapole moment (field-independent basis, Debye-Ang**2):
  XXX=              0.0190  YYY=             -1.5337  ZZZ=             -0.0254  XYY=              0.0056
  XXY=             -1.9819  XXZ=              0.0270  XZZ=              0.0076  YZZ=              0.5762
  YYZ=              0.0520  XYZ=             -0.1464
 Hexadecapole moment (field-independent basis, Debye-Ang**3):
 XXXX=           -670.5502 YYYY=           -283.2396 ZZZZ=           -227.9140 XXXY=              0.0006
 XXXZ=             -0.3258 YYYX=             -0.0088 YYYZ=             -0.0202 ZZZX=              0.4285
 ZZZY=              0.0217 XXYY=           -158.5086 XXZZ=           -150.4065 YYZZ=            -88.5266
 XXYZ=              0.0240 YYXZ=             -0.2573 ZZXY=              0.0047
 N-N= 8.068481902099D+02 E-N=-3.780095584827D+03  KE= 9.074151108034D+02
 Calling FoFJK, ICntrl=      2127 FMM=F ISym2X=0 I1Cent= 0 IOpClX= 0 NMat=1 NMatS=1 NMatT=0.
 ***** Axes restored to original set *****
 -------------------------------------------------------------------
 Center     Atomic                   Forces (Hartrees/Bohr)
 Number     Number              X              Y              Z
 -------------------------------------------------------------------
      1        6          -0.000250040    0.000098990   -0.000708595
      2        6           0.000259532    0.000162993   -0.000114729
      3        6           0.000236967    0.000112418    0.000111836
      4        9          -0.000573948    0.000113639    0.000488755
      5        9           0.000971732   -0.000923836    0.000240987
      6        9           0.000567707    0.000695604   -0.000363773
      7        9          -0.000178300   -0.000464283   -0.000116677
      8        9          -0.000048792    0.000127121    0.000003643
      9        9          -0.000030555   -0.000447859   -0.000487625
     10        9           0.000254411    0.000013608    0.000139566
     11        9          -0.001208716    0.000511606    0.000806613
 -------------------------------------------------------------------
 Cartesian Forces:  Max     0.001208716 RMS     0.000470811

 GradGradGradGradGradGradGradGradGradGradGradGradGradGradGradGradGradGrad
 Berny optimization.
 Search for a local minimum.
 Step number   1 out of a maximum of    2
 All quantities printed in internal units (Hartrees-Bohrs-Radians)
 Second derivative matrix not updated -- first step.
 ITU=  0
     Eigenvalues ---    0.00207   0.00320   0.01381   0.03381   0.05333
     Eigenvalues ---    0.05350   0.05403   0.06863   0.08542   0.09230
     Eigenvalues ---    0.12484   0.14564   0.15193   0.15862   0.18465
     Eigenvalues ---    0.21673   0.24557   0.36813   0.65755   1.01575
     Eigenvalues ---    1.21845   1.29828   1.47833   1.62665   1.63720
     Eigenvalues ---    1.68718   1.73559
 Angle between quadratic step and forces=  81.71 degrees.
 Linear search not attempted -- first point.
 B after Tr=    -0.000026    0.000114   -0.000227
         Rot=    1.000000    0.000006   -0.000029   -0.000020 Ang=   0.00 deg.
 Variable       Old X    -DE/DX   Delta X   Delta X   Delta X     New X
                                 (Linear)    (Quad)   (Total)
    X1       -5.05329  -0.00025   0.00000   0.00266   0.00259  -5.05070
    Y1        0.93976   0.00010   0.00000   0.00340   0.00331   0.94307
    Z1       -0.10227  -0.00071   0.00000  -0.00253  -0.00247  -0.10473
    X2       -3.85886   0.00026   0.00000   0.00234   0.00235  -3.85651
    Y2        2.32058   0.00016   0.00000   0.00166   0.00165   2.32223
    Z2        2.14498  -0.00011   0.00000  -0.00215  -0.00218   2.14280
    X3       -1.68616   0.00024   0.00000  -0.00661  -0.00647  -1.69263
    Y3        0.94201   0.00011   0.00000  -0.00473  -0.00465   0.93737
    Z3        3.47061   0.00011   0.00000   0.00683   0.00669   3.47731
    X4        0.22172  -0.00057   0.00000  -0.01200  -0.01194   0.20978
    Y4        0.62675   0.00011   0.00000  -0.02989  -0.02975   0.59701
    Z4        1.91936   0.00049   0.00000   0.00721   0.00696   1.92633
    X5       -6.78362   0.00097   0.00000  -0.02743  -0.02761  -6.81123
    Y5        2.40027  -0.00092   0.00000  -0.01801  -0.01818   2.38209
    Z5       -1.11059   0.00024   0.00000   0.02316   0.02331  -1.08728
    X6       -6.11799   0.00057   0.00000   0.04490   0.04496  -6.07303
    Y6       -1.17143   0.00070   0.00000  -0.01990  -0.02002  -1.19145
    Z6        0.64333  -0.00036   0.00000  -0.01310  -0.01295   0.63037
    X7       -2.98287  -0.00018   0.00000   0.01333   0.01320  -2.96968
    Y7        4.52276  -0.00046   0.00000  -0.00613  -0.00612   4.51664
    Z7        1.32739  -0.00012   0.00000  -0.00916  -0.00927   1.31812
    X8       -5.66207  -0.00005   0.00000   0.00016   0.00025  -5.66181
    Y8        2.72461   0.00013   0.00000   0.01606   0.01599   2.74059
    Z8        3.83830   0.00000   0.00000  -0.00776  -0.00769   3.83061
    X9       -0.93649  -0.00003   0.00000   0.00806   0.00825  -0.92823
    Y9        2.29950  -0.00045   0.00000   0.00366   0.00380   2.30330
    Z9        5.40278  -0.00049   0.00000  -0.00602  -0.00622   5.39656
   X10       -2.43773   0.00025   0.00000  -0.01796  -0.01768  -2.45541
   Y10       -1.27583   0.00001   0.00000   0.00657   0.00663  -1.26920
   Z10        4.28520   0.00014   0.00000   0.02691   0.02684   4.31204
   X11       -3.33729  -0.00121   0.00000  -0.00775  -0.00791  -3.34519
   Y11        0.41556   0.00051   0.00000   0.04738   0.04734   0.46290
   Z11       -1.81658   0.00081   0.00000  -0.02299  -0.02302  -1.83960
         Item               Value     Threshold  Converged?
 Maximum Force            0.001209     0.000450     NO 
 RMS     Force            0.000471     0.000300     NO 
 Maximum Displacement     0.047344     0.001800     NO 
 RMS     Displacement     0.017487     0.001200     NO 
 Predicted change in Energy=-1.959612D-05
 GradGradGradGradGradGradGradGradGradGradGradGradGradGradGradGradGradGrad

 1\1\GINC-MU01\Force\RHF\6-31G(d)\C3F8\LBL8\15-Sep-2025\0\\# hf/6-31G(d
 ) force\\Force calculation\\0,1\C,-2.67408695,0.49729945,-0.05411761\C
 ,-2.04202195,1.22799879,1.13507684\C,-0.89228005,0.49849157,1.83656975
 \F,0.11733053,0.33166294,1.0156837\F,-3.58973864,1.27016988,-0.5876980
 4\F,-3.23750104,-0.61989361,0.34043413\F,-1.57846926,2.39333893,0.7024
 2381\F,-2.99623666,1.44179898,2.03114018\F,-0.49556808,1.21684508,2.85
 902933\F,-1.28999175,-0.67513769,2.26762919\F,-1.76601569,0.21990428,-
 0.96129193\\Version=ES64L-G16RevA.03\State=1-A\HF=-909.1254744\RMSD=5.
 175e-09\RMSF=4.708e-04\Dipole=0.0182117,-0.0472876,-0.0163647\Quadrupo
 le=0.0274162,-0.0918,0.0643838,-0.0161145,0.1670788,0.0072611\PG=C01 [
 X(C3F8)]\\@


 STEINBACH'S GUIDELINES FOR SYSTEMS PROGRAMMING:
 NEVER TEST FOR AN ERROR CONDITION YOU DON'T KNOW HOW
 TO HANDLE.
 Job cpu time:       0 days  0 hours  0 minutes  7.6 seconds.
 Elapsed time:       0 days  0 hours  0 minutes  7.8 seconds.
 File lengths (MBytes):  RWF=     28 Int=      0 D2E=      0 Chk=      4 Scr=      2
 Normal termination of Gaussian 16 at Mon Sep 15 21:55:28 2025.
