 Entering Gaussian System, Link 0=g16
 Input=gauss.gjf
 Output=gauss.log
 Initial command:
 /software/Applications/gaussian/G16.A03.AVX/g16/l1.exe "/home/lbl8/code/hartree-fock_geomopt-rev-3/example/Gau-3232689.inp" -scrdir="/home/lbl8/code/hartree-fock_geomopt-rev-3/example/"
 Entering Link 1 = /software/Applications/gaussian/G16.A03.AVX/g16/l1.exe PID=   3232691.
  
 Copyright (c) 1988,1990,1992,1993,1995,1998,2003,2009,2016,
            Gaussian, Inc.  All Rights Reserved.
  
 This is part of the Gaussian(R) 16 program.  It is based on
 the Gaussian(R) 09 system (copyright 2009, Gaussian, Inc.),
 the Gaussian(R) 03 system (copyright 2003, Gaussian, Inc.),
 the Gaussian(R) 98 system (copyright 1998, Gaussian, Inc.),
 the Gaussian(R) 94 system (copyright 1995, Gaussian, Inc.),
 the Gaussian 92(TM) system (copyright 1992, Gaussian, Inc.),
 the Gaussian 90(TM) system (copyright 1990, Gaussian, Inc.),
 the Gaussian 88(TM) system (copyright 1988, Gaussian, Inc.),
 the Gaussian 86(TM) system (copyright 1986, Carnegie Mellon
 University), and the Gaussian 82(TM) system (copyright 1983,
 Carnegie Mellon University). Gaussian is a federally registered
 trademark of Gaussian, Inc.
  
 This software contains proprietary and confidential information,
 including trade secrets, belonging to Gaussian, Inc.
  
 This software is provided under written license and may be
 used, copied, transmitted, or stored only in accord with that
 written license.
  
 The following legend is applicable only to US Government
 contracts under FAR:
  
                    RESTRICTED RIGHTS LEGEND
  
 Use, reproduction and disclosure by the US Government is
 subject to restrictions as set forth in subparagraphs (a)
 and (c) of the Commercial Computer Software - Restricted
 Rights clause in FAR 52.227-19.
  
 Gaussian, Inc.
 340 Quinnipiac St., Bldg. 40, Wallingford CT 06492
  
  
 ---------------------------------------------------------------
 Warning -- This program may not be used in any manner that
 competes with the business of Gaussian, Inc. or will provide
 assistance to any competitor of Gaussian, Inc.  The licensee
 of this program is prohibited from giving any competitor of
 Gaussian, Inc. access to this program.  By using this program,
 the user acknowledges that Gaussian, Inc. is engaged in the
 business of creating and licensing software in the field of
 computational chemistry and represents and warrants to the
 licensee that it is not a competitor of Gaussian, Inc. and that
 it will not use this program in any manner prohibited above.
 ---------------------------------------------------------------
  

 Cite this work as:
 Gaussian 16, Revision A.03,
 M. J. Frisch, G. W. Trucks, H. B. Schlegel, G. E. Scuseria, 
 M. A. Robb, J. R. Cheeseman, G. Scalmani, V. Barone, 
 G. A. Petersson, H. Nakatsuji, X. Li, M. Caricato, A. V. Marenich, 
 J. Bloino, B. G. Janesko, R. Gomperts, B. Mennucci, H. P. Hratchian, 
 J. V. Ortiz, A. F. Izmaylov, J. L. Sonnenberg, D. Williams-Young, 
 F. Ding, F. Lipparini, F. Egidi, J. Goings, B. Peng, A. Petrone, 
 T. Henderson, D. Ranasinghe, V. G. Zakrzewski, J. Gao, N. Rega, 
 G. Zheng, W. Liang, M. Hada, M. Ehara, K. Toyota, R. Fukuda, 
 J. Hasegawa, M. Ishida, T. Nakajima, Y. Honda, O. Kitao, H. Nakai, 
 T. Vreven, K. Throssell, J. A. Montgomery, Jr., J. E. Peralta, 
 F. Ogliaro, M. J. Bearpark, J. J. Heyd, E. N. Brothers, K. N. Kudin, 
 V. N. Staroverov, T. A. Keith, R. Kobayashi, J. Normand, 
 K. Raghavachari, A. P. Rendell, J. C. Burant, S. S. Iyengar, 
 J. Tomasi, M. Cossi, J. M. Millam, M. Klene, C. Adamo, R. Cammi, 
 J. W. Ochterski, R. L. Martin, K. Morokuma, O. Farkas, 
 J. B. Foresman, and D. J. Fox, Gaussian, Inc., Wallingford CT, 2016.
 
 ******************************************
 Gaussian 16:  ES64L-G16RevA.03 25-Dec-2016
                15-Sep-2025 
 ******************************************
 %chk=gauss.chk
 -------------------
 # hf/6-31G(d) force
 -------------------
 1/10=7,30=1,38=1/1,3;
 2/12=2,17=6,18=5,40=1/2;
 3/5=1,6=6,7=1,11=9,25=1,30=1,71=1/1,2,3;
 4//1;
 5/5=2,38=5/2;
 6/7=2,8=2,9=2,10=2,28=1/1;
 7/29=1/1,2,3,16;
 1/10=7,30=1/3;
 99//99;
 -----------------
 Force calculation
 -----------------
 Symbolic Z-matrix:
 Charge =  0 Multiplicity = 1
 C                    -2.66601   0.5031   -0.06146 
 C                    -2.04049   1.22894   1.1335 
 C                    -0.90222   0.49181   1.84608 
 F                     0.09009   0.2692    1.01769 
 F                    -3.61682   1.25316  -0.5624 
 F                    -3.18067  -0.64256   0.31659 
 F                    -1.56641   2.39012   0.70194 
 F                    -3.00078   1.45039   2.02136 
 F                    -0.47135   1.2326    2.83762 
 F                    -1.32387  -0.65493   2.32322 
 F                    -1.76605   0.28067  -0.98927 
 

 GradGradGradGradGradGradGradGradGradGradGradGradGradGradGradGradGradGrad
 Berny optimization.
 Initialization pass.
 Trust Radius=3.00D-01 FncErr=1.00D-07 GrdErr=1.00D-07 EigMax=2.50D+02 EigMin=1.00D-04
 Number of steps in this run=      2 maximum allowed number of steps=      2.
 GradGradGradGradGradGradGradGradGradGradGradGradGradGradGradGradGradGrad

                          Input orientation:                          
 ---------------------------------------------------------------------
 Center     Atomic      Atomic             Coordinates (Angstroms)
 Number     Number       Type             X           Y           Z
 ---------------------------------------------------------------------
      1          6           0       -2.666009    0.503100   -0.061456
      2          6           0       -2.040492    1.228938    1.133501
      3          6           0       -0.902221    0.491807    1.846084
      4          9           0        0.090093    0.269197    1.017693
      5          9           0       -3.616816    1.253155   -0.562398
      6          9           0       -3.180672   -0.642560    0.316589
      7          9           0       -1.566407    2.390122    0.701938
      8          9           0       -3.000784    1.450387    2.021360
      9          9           0       -0.471355    1.232600    2.837617
     10          9           0       -1.323869   -0.654932    2.323218
     11          9           0       -1.766050    0.280666   -0.989267
 ---------------------------------------------------------------------
                    Distance matrix (angstroms):
                    1          2          3          4          5
     1  C    0.000000
     2  C    1.531677   0.000000
     3  C    2.598035   1.531926   0.000000
     4  F    2.969069   2.339639   1.311669   0.000000
     5  F    1.310557   2.315482   3.708027   4.148016   0.000000
     6  F    1.311615   2.338773   2.969425   3.467095   2.134614
     7  F    2.313600   1.326406   2.313831   2.709616   2.663722
     8  F    2.312477   1.326458   2.313777   3.457756   2.663494
     9  F    3.708544   2.316509   1.310556   2.134360   4.631895
    10  F    2.971371   2.340500   1.311661   2.134877   4.150323
    11  F    1.311577   2.341086   2.971531   2.733731   2.133843
                    6          7          8          9         10
     6  F    0.000000
     7  F    3.457095   0.000000
     8  F    2.705371   2.163657   0.000000
     9  F    4.148760   2.664605   2.666780   0.000000
    10  F    2.733940   3.458284   2.708418   2.134049   0.000000
    11  F    2.135125   2.711058   3.457844   4.150597   3.470363
                   11
    11  F    0.000000
 Stoichiometry    C3F8
 Framework group  C1[X(C3F8)]
 Deg. of freedom    27
 Full point group                 C1      NOp   1
 Largest Abelian subgroup         C1      NOp   1
 Largest concise Abelian subgroup C1      NOp   1
                         Standard orientation:                         
 ---------------------------------------------------------------------
 Center     Atomic      Atomic             Coordinates (Angstroms)
 Number     Number       Type             X           Y           Z
 ---------------------------------------------------------------------
      1          6           0       -1.298805   -0.232092   -0.000150
      2          6           0       -0.000194    0.580092   -0.000271
      3          6           0        1.299229   -0.231263   -0.000271
      4          9           0        1.365839   -0.991428   -1.067130
      5          9           0       -2.315630    0.594726   -0.000858
      6          9           0       -1.365366   -0.989532    1.068582
      7          9           0       -0.000548    1.348400   -1.081500
      8          9           0       -0.001398    1.346799    1.082157
      9          9           0        2.316265    0.595291   -0.001997
     10          9           0        1.368575   -0.989544    1.067745
     11          9           0       -1.367891   -0.992537   -1.066539
 ---------------------------------------------------------------------
 Rotational constants (GHZ):           1.7222212           0.9768440           0.9211020
 Standard basis: 6-31G(d) (6D, 7F)
 There are   165 symmetry adapted cartesian basis functions of A   symmetry.
 There are   165 symmetry adapted basis functions of A   symmetry.
   165 basis functions,   308 primitive gaussians,   165 cartesian basis functions
    45 alpha electrons       45 beta electrons
       nuclear repulsion energy       807.0437442604 Hartrees.
 NAtoms=   11 NActive=   11 NUniq=   11 SFac= 1.00D+00 NAtFMM=   60 NAOKFM=F Big=F
 Integral buffers will be    131072 words long.
 Raffenetti 1 integral format.
 Two-electron integral symmetry is turned on.
 One-electron integrals computed using PRISM.
 NBasis=   165 RedAO= T EigKep=  1.55D-03  NBF=   165
 NBsUse=   165 1.00D-06 EigRej= -1.00D+00 NBFU=   165
 ExpMin= 1.69D-01 ExpMax= 7.00D+03 ExpMxC= 1.05D+03 IAcc=3 IRadAn=         5 AccDes= 0.00D+00
 Harris functional with IExCor=  205 and IRadAn=       5 diagonalized for initial guess.
 HarFok:  IExCor=  205 AccDes= 0.00D+00 IRadAn=         5 IDoV= 1 UseB2=F ITyADJ=14
 ICtDFT=  3500011 ScaDFX=  1.000000  1.000000  1.000000  1.000000
 FoFCou: FMM=F IPFlag=           0 FMFlag=      100000 FMFlg1=           0
         NFxFlg=           0 DoJE=T BraDBF=F KetDBF=T FulRan=T
         wScrn=  0.000000 ICntrl=       500 IOpCl=  0 I1Cent=   200000004 NGrid=           0
         NMat0=    1 NMatS0=      1 NMatT0=    0 NMatD0=    1 NMtDS0=    0 NMtDT0=    0
 Petite list used in FoFCou.
 Keep R1 ints in memory in canonical form, NReq=96071382.
 Requested convergence on RMS density matrix=1.00D-08 within 128 cycles.
 Requested convergence on MAX density matrix=1.00D-06.
 Requested convergence on             energy=1.00D-06.
 No special actions if energy rises.
 SCF Done:  E(RHF) =  -909.125508203     A.U. after   11 cycles
            NFock= 11  Conv=0.51D-08     -V/T= 2.0019

 **********************************************************************

            Population analysis using the SCF density.

 **********************************************************************

 Orbital symmetries:
       Occupied  (A) (A) (A) (A) (A) (A) (A) (A) (A) (A) (A) (A)
                 (A) (A) (A) (A) (A) (A) (A) (A) (A) (A) (A) (A)
                 (A) (A) (A) (A) (A) (A) (A) (A) (A) (A) (A) (A)
                 (A) (A) (A) (A) (A) (A) (A) (A) (A)
       Virtual   (A) (A) (A) (A) (A) (A) (A) (A) (A) (A) (A) (A)
                 (A) (A) (A) (A) (A) (A) (A) (A) (A) (A) (A) (A)
                 (A) (A) (A) (A) (A) (A) (A) (A) (A) (A) (A) (A)
                 (A) (A) (A) (A) (A) (A) (A) (A) (A) (A) (A) (A)
                 (A) (A) (A) (A) (A) (A) (A) (A) (A) (A) (A) (A)
                 (A) (A) (A) (A) (A) (A) (A) (A) (A) (A) (A) (A)
                 (A) (A) (A) (A) (A) (A) (A) (A) (A) (A) (A) (A)
                 (A) (A) (A) (A) (A) (A) (A) (A) (A) (A) (A) (A)
                 (A) (A) (A) (A) (A) (A) (A) (A) (A) (A) (A) (A)
                 (A) (A) (A) (A) (A) (A) (A) (A) (A) (A) (A) (A)
 The electronic state is 1-A.
 Alpha  occ. eigenvalues --  -26.37884 -26.37882 -26.37881 -26.37879 -26.37725
 Alpha  occ. eigenvalues --  -26.37718 -26.37492 -26.37486 -11.54721 -11.54715
 Alpha  occ. eigenvalues --  -11.47901  -1.78950  -1.77904  -1.73181  -1.68403
 Alpha  occ. eigenvalues --   -1.67750  -1.67571  -1.67558  -1.66408  -1.12512
 Alpha  occ. eigenvalues --   -1.02799  -0.95745  -0.90821  -0.88832  -0.87827
 Alpha  occ. eigenvalues --   -0.86549  -0.85683  -0.85528  -0.81575  -0.76146
 Alpha  occ. eigenvalues --   -0.75266  -0.74842  -0.73612  -0.73442  -0.73122
 Alpha  occ. eigenvalues --   -0.72351  -0.70299  -0.70170  -0.68545  -0.68528
 Alpha  occ. eigenvalues --   -0.68409  -0.67433  -0.67249  -0.63279  -0.55998
 Alpha virt. eigenvalues --    0.25270   0.26093   0.38077   0.38996   0.41978
 Alpha virt. eigenvalues --    0.44421   0.45772   0.49097   0.51684   0.55379
 Alpha virt. eigenvalues --    0.64115   0.64922   0.69195   0.69309   0.70408
 Alpha virt. eigenvalues --    0.76522   0.77943   0.85337   0.87108   0.88258
 Alpha virt. eigenvalues --    1.10528   1.11239   1.20104   1.24820   1.26781
 Alpha virt. eigenvalues --    1.30039   1.33385   1.34865   1.36006   1.37135
 Alpha virt. eigenvalues --    1.42217   1.44120   1.50327   1.55596   1.56009
 Alpha virt. eigenvalues --    1.56076   1.56175   1.59836   1.60419   1.61141
 Alpha virt. eigenvalues --    1.62832   1.63804   1.64051   1.64391   1.65637
 Alpha virt. eigenvalues --    1.67397   1.67444   1.70556   1.71672   1.73336
 Alpha virt. eigenvalues --    1.79038   1.84726   1.86912   1.87624   1.87974
 Alpha virt. eigenvalues --    1.96206   1.96303   1.97388   2.00012   2.04424
 Alpha virt. eigenvalues --    2.05055   2.06689   2.08333   2.09324   2.10130
 Alpha virt. eigenvalues --    2.10626   2.15590   2.18226   2.21626   2.25658
 Alpha virt. eigenvalues --    2.29351   2.30421   2.30719   2.30998   2.31504
 Alpha virt. eigenvalues --    2.37778   2.37887   2.38024   2.41577   2.43057
 Alpha virt. eigenvalues --    2.43406   2.47330   2.48308   2.54351   2.62825
 Alpha virt. eigenvalues --    2.65690   2.66169   2.70296   2.71606   2.79413
 Alpha virt. eigenvalues --    2.80916   2.81368   2.94923   3.02175   3.02668
 Alpha virt. eigenvalues --    3.15780   3.16698   3.18408   3.27772   3.28038
 Alpha virt. eigenvalues --    3.28415   3.37875   3.40900   3.42337   3.42905
 Alpha virt. eigenvalues --    3.46463   3.50126   3.51258   3.52984   4.56360
 Alpha virt. eigenvalues --    4.66115   4.76682   4.84150   5.08368   5.20862
 Alpha virt. eigenvalues --    5.60590   5.70853   6.09439   6.35842   6.38944
          Condensed to atoms (all electrons):
               1          2          3          4          5          6
     1  C    3.779398   0.365665  -0.059129   0.005788   0.295613   0.281104
     2  C    0.365665   4.439945   0.365640  -0.039071  -0.026296  -0.039201
     3  C   -0.059129   0.365640   3.779435   0.281098   0.001527   0.005787
     4  F    0.005788  -0.039071   0.281098   9.157970  -0.000001  -0.000155
     5  F    0.295613  -0.026296   0.001527  -0.000001   9.139342  -0.034486
     6  F    0.281104  -0.039201   0.005787  -0.000155  -0.034486   9.157979
     7  F   -0.019155   0.216216  -0.019150   0.001041   0.000556   0.000358
     8  F   -0.019237   0.215925  -0.019153   0.000358   0.000555   0.001057
     9  F    0.001526  -0.026230   0.295700  -0.034550  -0.000001  -0.000001
    10  F    0.005726  -0.039031   0.281378  -0.033385  -0.000001  -0.000282
    11  F    0.281481  -0.038937   0.005722  -0.000284  -0.034648  -0.033344
               7          8          9         10         11
     1  C   -0.019155  -0.019237   0.001526   0.005726   0.281481
     2  C    0.216216   0.215925  -0.026230  -0.039031  -0.038937
     3  C   -0.019150  -0.019153   0.295700   0.281378   0.005722
     4  F    0.001041   0.000358  -0.034550  -0.033385  -0.000284
     5  F    0.000556   0.000555  -0.000001  -0.000001  -0.034648
     6  F    0.000358   0.001057  -0.000001  -0.000282  -0.033344
     7  F    9.210368  -0.027917   0.000553   0.000356   0.001038
     8  F   -0.027917   9.210797   0.000555   0.001049   0.000357
     9  F    0.000553   0.000555   9.139100  -0.034616  -0.000001
    10  F    0.000356   0.001049  -0.034616   9.157650  -0.000152
    11  F    0.001038   0.000357  -0.000001  -0.000152   9.157387
 Mulliken charges:
               1
     1  C    1.081220
     2  C    0.605376
     3  C    1.081146
     4  F   -0.338809
     5  F   -0.342160
     6  F   -0.338817
     7  F   -0.364264
     8  F   -0.364345
     9  F   -0.342036
    10  F   -0.338692
    11  F   -0.338619
 Sum of Mulliken charges =  -0.00000
 Mulliken charges with hydrogens summed into heavy atoms:
               1
     1  C    1.081220
     2  C    0.605376
     3  C    1.081146
     4  F   -0.338809
     5  F   -0.342160
     6  F   -0.338817
     7  F   -0.364264
     8  F   -0.364345
     9  F   -0.342036
    10  F   -0.338692
    11  F   -0.338619
 Electronic spatial extent (au):  <R**2>=           1281.5923
 Charge=             -0.0000 electrons
 Dipole moment (field-independent basis, Debye):
    X=              0.0010    Y=             -0.1340    Z=             -0.0024  Tot=              0.1340
 Quadrupole moment (field-independent basis, Debye-Ang):
   XX=            -56.8229   YY=            -57.2237   ZZ=            -57.2876
   XY=              0.0043   XZ=              0.0001   YZ=             -0.0004
 Traceless Quadrupole moment (field-independent basis, Debye-Ang):
   XX=              0.2885   YY=             -0.1123   ZZ=             -0.1762
   XY=              0.0043   XZ=              0.0001   YZ=             -0.0004
 Octapole moment (field-independent basis, Debye-Ang**2):
  XXX=             -0.0068  YYY=             -1.5599  ZZZ=             -0.0062  XYY=              0.0003
  XXY=             -1.9758  XXZ=              0.0077  XZZ=             -0.0002  YZZ=              0.5938
  YYZ=              0.0099  XYZ=              0.0061
 Hexadecapole moment (field-independent basis, Debye-Ang**3):
 XXXX=           -670.4900 YYYY=           -282.9739 ZZZZ=           -227.7892 XXXY=             -0.0020
 XXXZ=             -0.0133 YYYX=             -0.0034 YYYZ=             -0.0015 ZZZX=              0.0072
 ZZZY=             -0.0002 XXYY=           -158.4814 XXZZ=           -150.3361 YYZZ=            -88.4755
 XXYZ=              0.0033 YYXZ=              0.0002 ZZXY=             -0.0001
 N-N= 8.070437442604D+02 E-N=-3.780496547519D+03  KE= 9.074294984244D+02
 Calling FoFJK, ICntrl=      2127 FMM=F ISym2X=0 I1Cent= 0 IOpClX= 0 NMat=1 NMatS=1 NMatT=0.
 ***** Axes restored to original set *****
 -------------------------------------------------------------------
 Center     Atomic                   Forces (Hartrees/Bohr)
 Number     Number              X              Y              Z
 -------------------------------------------------------------------
      1        6          -0.000059350    0.000065306   -0.000010265
      2        6           0.000016428   -0.000015685    0.000031381
      3        6           0.000055807   -0.000025065    0.000015864
      4        9           0.000087005    0.000054385    0.000034867
      5        9          -0.000061508   -0.000093990    0.000020224
      6        9          -0.000123531   -0.000074197   -0.000159174
      7        9           0.000057481   -0.000069216    0.000035647
      8        9           0.000087957    0.000042763    0.000066307
      9        9          -0.000057727    0.000018846   -0.000099579
     10        9          -0.000063609    0.000078181   -0.000017249
     11        9           0.000061049    0.000018671    0.000081977
 -------------------------------------------------------------------
 Cartesian Forces:  Max     0.000159174 RMS     0.000065699

 GradGradGradGradGradGradGradGradGradGradGradGradGradGradGradGradGradGrad
 Berny optimization.
 Search for a local minimum.
 Step number   1 out of a maximum of    2
 All quantities printed in internal units (Hartrees-Bohrs-Radians)
 Second derivative matrix not updated -- first step.
 ITU=  0
     Eigenvalues ---    0.00208   0.00322   0.01382   0.03383   0.05340
     Eigenvalues ---    0.05354   0.05406   0.06872   0.08550   0.09236
     Eigenvalues ---    0.12495   0.14578   0.15204   0.15876   0.18478
     Eigenvalues ---    0.21692   0.24583   0.36850   0.65862   1.01794
     Eigenvalues ---    1.22081   1.29952   1.48004   1.63115   1.64082
     Eigenvalues ---    1.69119   1.73817
 Angle between quadratic step and forces=  49.39 degrees.
 Linear search not attempted -- first point.
 B after Tr=     0.000018    0.000034    0.000019
         Rot=    1.000000   -0.000001    0.000003   -0.000000 Ang=  -0.00 deg.
 Variable       Old X    -DE/DX   Delta X   Delta X   Delta X     New X
                                 (Linear)    (Quad)   (Total)
    X1       -5.03803  -0.00006   0.00000  -0.00149  -0.00147  -5.03950
    Y1        0.95072   0.00007   0.00000  -0.00051  -0.00048   0.95024
    Z1       -0.11613  -0.00001   0.00000  -0.00014  -0.00014  -0.11628
    X2       -3.85597   0.00002   0.00000   0.00062   0.00062  -3.85535
    Y2        2.32236  -0.00002   0.00000  -0.00097  -0.00094   2.32142
    Z2        2.14201   0.00003   0.00000  -0.00023  -0.00023   2.14177
    X3       -1.70495   0.00006   0.00000   0.00050   0.00049  -1.70446
    Y3        0.92938  -0.00003   0.00000  -0.00014  -0.00012   0.92926
    Z3        3.48859   0.00002   0.00000   0.00026   0.00027   3.48887
    X4        0.17025   0.00009   0.00000   0.00294   0.00295   0.17320
    Y4        0.50871   0.00005   0.00000   0.00189   0.00192   0.51062
    Z4        1.92316   0.00003   0.00000   0.00256   0.00258   1.92574
    X5       -6.83479  -0.00006   0.00000  -0.00252  -0.00250  -6.83729
    Y5        2.36812  -0.00009   0.00000  -0.00085  -0.00082   2.36730
    Z5       -1.06278   0.00002   0.00000   0.00138   0.00137  -1.06141
    X6       -6.01060  -0.00012   0.00000  -0.00165  -0.00163  -6.01223
    Y6       -1.21426  -0.00007   0.00000  -0.00165  -0.00162  -1.21589
    Z6        0.59827  -0.00016   0.00000  -0.00344  -0.00346   0.59481
    X7       -2.96008   0.00006   0.00000   0.00290   0.00290  -2.95718
    Y7        4.51668  -0.00007   0.00000  -0.00242  -0.00239   4.51428
    Z7        1.32647   0.00004   0.00000  -0.00139  -0.00138   1.32509
    X8       -5.67066   0.00009   0.00000   0.00265   0.00264  -5.66802
    Y8        2.74083   0.00004   0.00000   0.00219   0.00221   2.74304
    Z8        3.81982   0.00007   0.00000   0.00114   0.00113   3.82095
    X9       -0.89073  -0.00006   0.00000  -0.00279  -0.00281  -0.89354
    Y9        2.32928   0.00002   0.00000   0.00085   0.00087   2.33015
    Z9        5.36232  -0.00010   0.00000   0.00078   0.00080   5.36311
   X10       -2.50175  -0.00006   0.00000   0.00018   0.00017  -2.50157
   Y10       -1.23764   0.00008   0.00000  -0.00023  -0.00020  -1.23784
   Z10        4.39025  -0.00002   0.00000  -0.00045  -0.00044   4.38980
   X11       -3.33735   0.00006   0.00000  -0.00139  -0.00137  -3.33872
   Y11        0.53038   0.00002   0.00000   0.00154   0.00157   0.53195
   Z11       -1.86944   0.00008   0.00000  -0.00049  -0.00049  -1.86993
         Item               Value     Threshold  Converged?
 Maximum Force            0.000159     0.000450     YES
 RMS     Force            0.000066     0.000300     YES
 Maximum Displacement     0.003461     0.001800     NO 
 RMS     Displacement     0.001674     0.001200     NO 
 Predicted change in Energy=-1.181485D-06
 GradGradGradGradGradGradGradGradGradGradGradGradGradGradGradGradGradGrad

 1\1\GINC-MU01\Force\RHF\6-31G(d)\C3F8\LBL8\15-Sep-2025\0\\# hf/6-31G(d
 ) force\\Force calculation\\0,1\C,-2.66600857,0.50310012,-0.06145597\C
 ,-2.0404922,1.22893766,1.13350148\C,-0.90222085,0.49180731,1.84608416\
 F,0.09009324,0.26919673,1.01769282\F,-3.61681554,1.25315506,-0.5623983
 8\F,-3.18067161,-0.64256016,0.31658891\F,-1.56640694,2.39012192,0.7019
 3801\F,-3.00078362,1.45038687,2.02135991\F,-0.47135471,1.23259973,2.83
 761707\F,-1.32386889,-0.65493209,2.32321794\F,-1.76605002,0.2806655,-0
 .98926657\\Version=ES64L-G16RevA.03\State=1-A\HF=-909.1255082\RMSD=5.1
 49e-09\RMSF=6.570e-05\Dipole=0.0175227,-0.0471052,-0.0159634\Quadrupol
 e=0.0314393,-0.0921908,0.0607514,-0.0125107,0.1677825,0.0135289\PG=C01
  [X(C3F8)]\\@


 NEVER TEACH A PIG TO SING.
 IT WASTES YOUR TIME AND ANNOYS THE PIG.
     -- SEEN ON A GREETING CARD
 Job cpu time:       0 days  0 hours  0 minutes  8.0 seconds.
 Elapsed time:       0 days  0 hours  0 minutes  8.0 seconds.
 File lengths (MBytes):  RWF=     28 Int=      0 D2E=      0 Chk=      4 Scr=      2
 Normal termination of Gaussian 16 at Mon Sep 15 21:56:16 2025.
