 Entering Gaussian System, Link 0=g16
 Input=gauss.gjf
 Output=gauss.log
 Initial command:
 /software/Applications/gaussian/G16.A03.AVX/g16/l1.exe "/home/lbl8/code/hartree-fock_geomopt-rev-3/example/Gau-3231194.inp" -scrdir="/home/lbl8/code/hartree-fock_geomopt-rev-3/example/"
 Entering Link 1 = /software/Applications/gaussian/G16.A03.AVX/g16/l1.exe PID=   3231196.
  
 Copyright (c) 1988,1990,1992,1993,1995,1998,2003,2009,2016,
            Gaussian, Inc.  All Rights Reserved.
  
 This is part of the Gaussian(R) 16 program.  It is based on
 the Gaussian(R) 09 system (copyright 2009, Gaussian, Inc.),
 the Gaussian(R) 03 system (copyright 2003, Gaussian, Inc.),
 the Gaussian(R) 98 system (copyright 1998, Gaussian, Inc.),
 the Gaussian(R) 94 system (copyright 1995, Gaussian, Inc.),
 the Gaussian 92(TM) system (copyright 1992, Gaussian, Inc.),
 the Gaussian 90(TM) system (copyright 1990, Gaussian, Inc.),
 the Gaussian 88(TM) system (copyright 1988, Gaussian, Inc.),
 the Gaussian 86(TM) system (copyright 1986, Carnegie Mellon
 University), and the Gaussian 82(TM) system (copyright 1983,
 Carnegie Mellon University). Gaussian is a federally registered
 trademark of Gaussian, Inc.
  
 This software contains proprietary and confidential information,
 including trade secrets, belonging to Gaussian, Inc.
  
 This software is provided under written license and may be
 used, copied, transmitted, or stored only in accord with that
 written license.
  
 The following legend is applicable only to US Government
 contracts under FAR:
  
                    RESTRICTED RIGHTS LEGEND
  
 Use, reproduction and disclosure by the US Government is
 subject to restrictions as set forth in subparagraphs (a)
 and (c) of the Commercial Computer Software - Restricted
 Rights clause in FAR 52.227-19.
  
 Gaussian, Inc.
 340 Quinnipiac St., Bldg. 40, Wallingford CT 06492
  
  
 ---------------------------------------------------------------
 Warning -- This program may not be used in any manner that
 competes with the business of Gaussian, Inc. or will provide
 assistance to any competitor of Gaussian, Inc.  The licensee
 of this program is prohibited from giving any competitor of
 Gaussian, Inc. access to this program.  By using this program,
 the user acknowledges that Gaussian, Inc. is engaged in the
 business of creating and licensing software in the field of
 computational chemistry and represents and warrants to the
 licensee that it is not a competitor of Gaussian, Inc. and that
 it will not use this program in any manner prohibited above.
 ---------------------------------------------------------------
  

 Cite this work as:
 Gaussian 16, Revision A.03,
 M. J. Frisch, G. W. Trucks, H. B. Schlegel, G. E. Scuseria, 
 M. A. Robb, J. R. Cheeseman, G. Scalmani, V. Barone, 
 G. A. Petersson, H. Nakatsuji, X. Li, M. Caricato, A. V. Marenich, 
 J. Bloino, B. G. Janesko, R. Gomperts, B. Mennucci, H. P. Hratchian, 
 J. V. Ortiz, A. F. Izmaylov, J. L. Sonnenberg, D. Williams-Young, 
 F. Ding, F. Lipparini, F. Egidi, J. Goings, B. Peng, A. Petrone, 
 T. Henderson, D. Ranasinghe, V. G. Zakrzewski, J. Gao, N. Rega, 
 G. Zheng, W. Liang, M. Hada, M. Ehara, K. Toyota, R. Fukuda, 
 J. Hasegawa, M. Ishida, T. Nakajima, Y. Honda, O. Kitao, H. Nakai, 
 T. Vreven, K. Throssell, J. A. Montgomery, Jr., J. E. Peralta, 
 F. Ogliaro, M. J. Bearpark, J. J. Heyd, E. N. Brothers, K. N. Kudin, 
 V. N. Staroverov, T. A. Keith, R. Kobayashi, J. Normand, 
 K. Raghavachari, A. P. Rendell, J. C. Burant, S. S. Iyengar, 
 J. Tomasi, M. Cossi, J. M. Millam, M. Klene, C. Adamo, R. Cammi, 
 J. W. Ochterski, R. L. Martin, K. Morokuma, O. Farkas, 
 J. B. Foresman, and D. J. Fox, Gaussian, Inc., Wallingford CT, 2016.
 
 ******************************************
 Gaussian 16:  ES64L-G16RevA.03 25-Dec-2016
                15-Sep-2025 
 ******************************************
 %chk=gauss.chk
 -------------------
 # hf/6-31G(d) force
 -------------------
 1/10=7,30=1,38=1/1,3;
 2/12=2,17=6,18=5,40=1/2;
 3/5=1,6=6,7=1,11=9,25=1,30=1,71=1/1,2,3;
 4//1;
 5/5=2,38=5/2;
 6/7=2,8=2,9=2,10=2,28=1/1;
 7/29=1/1,2,3,16;
 1/10=7,30=1/3;
 99//99;
 -----------------
 Force calculation
 -----------------
 Symbolic Z-matrix:
 Charge =  0 Multiplicity = 1
 C                    -2.68394   0.48931  -0.04329 
 C                    -2.0467    1.22348   1.14091 
 C                    -0.88718   0.50215   1.83584 
 F                     0.1303    0.41484   1.0112 
 F                    -3.56272   1.28432  -0.60508 
 F                    -3.29169  -0.60273   0.35493 
 F                    -1.57239   2.37457   0.68306 
 F                    -2.99711   1.46342   2.03181 
 F                    -0.52319   1.1862    2.89361 
 F                    -1.24009  -0.70449   2.21228 
 F                    -1.76987   0.1714   -0.93041 
 

 GradGradGradGradGradGradGradGradGradGradGradGradGradGradGradGradGradGrad
 Berny optimization.
 Initialization pass.
 Trust Radius=3.00D-01 FncErr=1.00D-07 GrdErr=1.00D-07 EigMax=2.50D+02 EigMin=1.00D-04
 Number of steps in this run=      2 maximum allowed number of steps=      2.
 GradGradGradGradGradGradGradGradGradGradGradGradGradGradGradGradGradGrad

                          Input orientation:                          
 ---------------------------------------------------------------------
 Center     Atomic      Atomic             Coordinates (Angstroms)
 Number     Number       Type             X           Y           Z
 ---------------------------------------------------------------------
      1          6           0       -2.683940    0.489314   -0.043285
      2          6           0       -2.046698    1.223477    1.140914
      3          6           0       -0.887184    0.502148    1.835836
      4          9           0        0.130295    0.414844    1.011204
      5          9           0       -3.562715    1.284319   -0.605078
      6          9           0       -3.291695   -0.602733    0.354934
      7          9           0       -1.572390    2.374571    0.683055
      8          9           0       -2.997106    1.463419    2.031811
      9          9           0       -0.523194    1.186204    2.893614
     10          9           0       -1.240085   -0.704485    2.212284
     11          9           0       -1.769867    0.171401   -0.930411
 ---------------------------------------------------------------------
                    Distance matrix (angstroms):
                    1          2          3          4          5
     1  C    0.000000
     2  C    1.532122   0.000000
     3  C    2.599922   1.532222   0.000000
     4  F    3.006229   2.325943   1.312594   0.000000
     5  F    1.311446   2.313114   3.705175   4.123916   0.000000
     6  F    1.311682   2.345809   3.032409   3.629899   2.134489
     7  F    2.305929   1.326507   2.303124   2.616744   2.609469
     8  F    2.313650   1.324593   2.326848   3.452794   2.702809
     9  F    3.712123   2.322588   1.311227   2.136706   4.635641
    10  F    2.932143   2.348509   1.312332   2.138558   4.157822
    11  F    1.312856   2.339634   2.922438   2.727591   2.135119
                    6          7          8          9         10
     6  F    0.000000
     7  F    3.453695   0.000000
     8  F    2.677252   2.163136   0.000000
     9  F    4.160503   2.720220   2.634349   0.000000
    10  F    2.769332   3.453919   2.796337   2.133741   0.000000
    11  F    2.137137   2.737925   3.456904   4.148155   3.305204
                   11
    11  F    0.000000
 Stoichiometry    C3F8
 Framework group  C1[X(C3F8)]
 Deg. of freedom    27
 Full point group                 C1      NOp   1
 Largest Abelian subgroup         C1      NOp   1
 Largest concise Abelian subgroup C1      NOp   1
                         Standard orientation:                         
 ---------------------------------------------------------------------
 Center     Atomic      Atomic             Coordinates (Angstroms)
 Number     Number       Type             X           Y           Z
 ---------------------------------------------------------------------
      1          6           0        1.297781   -0.233191   -0.004661
      2          6           0       -0.001120    0.579359   -0.008846
      3          6           0       -1.302138   -0.229993   -0.006582
      4          9           0       -1.410495   -0.880091    1.128555
      5          9           0        2.308125    0.592939    0.124197
      6          9           0        1.435366   -0.901989   -1.124613
      7          9           0       -0.003557    1.325857    1.087674
      8          9           0        0.012353    1.365224   -1.075045
      9          9           0       -2.320487    0.586601   -0.130905
     10          9           0       -1.324705   -1.089534   -0.997993
     11          9           0        1.307051   -1.076458    1.001523
 ---------------------------------------------------------------------
 Rotational constants (GHZ):           1.7228706           0.9755121           0.9207340
 Standard basis: 6-31G(d) (6D, 7F)
 There are   165 symmetry adapted cartesian basis functions of A   symmetry.
 There are   165 symmetry adapted basis functions of A   symmetry.
   165 basis functions,   308 primitive gaussians,   165 cartesian basis functions
    45 alpha electrons       45 beta electrons
       nuclear repulsion energy       806.8843800943 Hartrees.
 NAtoms=   11 NActive=   11 NUniq=   11 SFac= 1.00D+00 NAtFMM=   60 NAOKFM=F Big=F
 Integral buffers will be    131072 words long.
 Raffenetti 1 integral format.
 Two-electron integral symmetry is turned on.
 One-electron integrals computed using PRISM.
 NBasis=   165 RedAO= T EigKep=  1.52D-03  NBF=   165
 NBsUse=   165 1.00D-06 EigRej= -1.00D+00 NBFU=   165
 ExpMin= 1.69D-01 ExpMax= 7.00D+03 ExpMxC= 1.05D+03 IAcc=3 IRadAn=         5 AccDes= 0.00D+00
 Harris functional with IExCor=  205 and IRadAn=       5 diagonalized for initial guess.
 HarFok:  IExCor=  205 AccDes= 0.00D+00 IRadAn=         5 IDoV= 1 UseB2=F ITyADJ=14
 ICtDFT=  3500011 ScaDFX=  1.000000  1.000000  1.000000  1.000000
 FoFCou: FMM=F IPFlag=           0 FMFlag=      100000 FMFlg1=           0
         NFxFlg=           0 DoJE=T BraDBF=F KetDBF=T FulRan=T
         wScrn=  0.000000 ICntrl=       500 IOpCl=  0 I1Cent=   200000004 NGrid=           0
         NMat0=    1 NMatS0=      1 NMatT0=    0 NMatD0=    1 NMtDS0=    0 NMtDT0=    0
 Petite list used in FoFCou.
 Keep R1 ints in memory in canonical form, NReq=96071382.
 Requested convergence on RMS density matrix=1.00D-08 within 128 cycles.
 Requested convergence on MAX density matrix=1.00D-06.
 Requested convergence on             energy=1.00D-06.
 No special actions if energy rises.
 SCF Done:  E(RHF) =  -909.125249757     A.U. after   11 cycles
            NFock= 11  Conv=0.52D-08     -V/T= 2.0019

 **********************************************************************

            Population analysis using the SCF density.

 **********************************************************************

 Orbital symmetries:
       Occupied  (A) (A) (A) (A) (A) (A) (A) (A) (A) (A) (A) (A)
                 (A) (A) (A) (A) (A) (A) (A) (A) (A) (A) (A) (A)
                 (A) (A) (A) (A) (A) (A) (A) (A) (A) (A) (A) (A)
                 (A) (A) (A) (A) (A) (A) (A) (A) (A)
       Virtual   (A) (A) (A) (A) (A) (A) (A) (A) (A) (A) (A) (A)
                 (A) (A) (A) (A) (A) (A) (A) (A) (A) (A) (A) (A)
                 (A) (A) (A) (A) (A) (A) (A) (A) (A) (A) (A) (A)
                 (A) (A) (A) (A) (A) (A) (A) (A) (A) (A) (A) (A)
                 (A) (A) (A) (A) (A) (A) (A) (A) (A) (A) (A) (A)
                 (A) (A) (A) (A) (A) (A) (A) (A) (A) (A) (A) (A)
                 (A) (A) (A) (A) (A) (A) (A) (A) (A) (A) (A) (A)
                 (A) (A) (A) (A) (A) (A) (A) (A) (A) (A) (A) (A)
                 (A) (A) (A) (A) (A) (A) (A) (A) (A) (A) (A) (A)
                 (A) (A) (A) (A) (A) (A) (A) (A) (A) (A) (A) (A)
 The electronic state is 1-A.
 Alpha  occ. eigenvalues --  -26.38035 -26.37902 -26.37849 -26.37772 -26.37769
 Alpha  occ. eigenvalues --  -26.37662 -26.37584 -26.37387 -11.54765 -11.54705
 Alpha  occ. eigenvalues --  -11.47903  -1.78906  -1.77847  -1.73217  -1.68402
 Alpha  occ. eigenvalues --   -1.67729  -1.67564  -1.67519  -1.66407  -1.12487
 Alpha  occ. eigenvalues --   -1.02803  -0.95707  -0.90828  -0.88825  -0.87800
 Alpha  occ. eigenvalues --   -0.86541  -0.85641  -0.85505  -0.81590  -0.76158
 Alpha  occ. eigenvalues --   -0.75337  -0.74700  -0.73721  -0.73429  -0.73115
 Alpha  occ. eigenvalues --   -0.72281  -0.70307  -0.70150  -0.68548  -0.68538
 Alpha  occ. eigenvalues --   -0.68351  -0.67416  -0.67294  -0.63255  -0.56009
 Alpha virt. eigenvalues --    0.25240   0.26077   0.37891   0.38992   0.41911
 Alpha virt. eigenvalues --    0.44260   0.45890   0.49188   0.51657   0.55440
 Alpha virt. eigenvalues --    0.64086   0.64914   0.69153   0.69309   0.70415
 Alpha virt. eigenvalues --    0.76510   0.77880   0.85333   0.87272   0.88302
 Alpha virt. eigenvalues --    1.09931   1.11302   1.20540   1.24718   1.26637
 Alpha virt. eigenvalues --    1.30101   1.33440   1.34922   1.35658   1.37243
 Alpha virt. eigenvalues --    1.41927   1.44255   1.50913   1.54790   1.55186
 Alpha virt. eigenvalues --    1.56620   1.56962   1.59007   1.60052   1.62051
 Alpha virt. eigenvalues --    1.62822   1.63956   1.64057   1.64229   1.65017
 Alpha virt. eigenvalues --    1.67333   1.68057   1.70298   1.71391   1.73992
 Alpha virt. eigenvalues --    1.79105   1.84421   1.86394   1.87898   1.87954
 Alpha virt. eigenvalues --    1.95638   1.96818   1.97310   2.00659   2.04459
 Alpha virt. eigenvalues --    2.05089   2.06891   2.07709   2.09599   2.09824
 Alpha virt. eigenvalues --    2.10542   2.15861   2.18658   2.21720   2.25955
 Alpha virt. eigenvalues --    2.29220   2.30496   2.30725   2.31054   2.31398
 Alpha virt. eigenvalues --    2.37294   2.37746   2.39981   2.41501   2.42773
 Alpha virt. eigenvalues --    2.43501   2.47204   2.48505   2.53841   2.63010
 Alpha virt. eigenvalues --    2.65181   2.66777   2.70416   2.71459   2.77598
 Alpha virt. eigenvalues --    2.80671   2.81738   2.94638   3.01507   3.02350
 Alpha virt. eigenvalues --    3.14616   3.16550   3.18651   3.27398   3.27853
 Alpha virt. eigenvalues --    3.28576   3.37921   3.41116   3.42270   3.42811
 Alpha virt. eigenvalues --    3.46148   3.49571   3.50027   3.53846   4.56247
 Alpha virt. eigenvalues --    4.66339   4.74904   4.84261   5.08493   5.21588
 Alpha virt. eigenvalues --    5.65126   5.67147   6.06680   6.21536   6.35046
          Condensed to atoms (all electrons):
               1          2          3          4          5          6
     1  C    3.779040   0.365441  -0.059347   0.003666   0.294538   0.283036
     2  C    0.365441   4.441023   0.366115  -0.039093  -0.026468  -0.036873
     3  C   -0.059347   0.366115   3.778883   0.280723   0.001532   0.003454
     4  F    0.003666  -0.039093   0.280723   9.159744  -0.000002  -0.000048
     5  F    0.294538  -0.026468   0.001532  -0.000002   9.141256  -0.034622
     6  F    0.283036  -0.036873   0.003454  -0.000048  -0.034622   9.154769
     7  F   -0.019347   0.212267  -0.020128   0.001237   0.000596   0.000358
     8  F   -0.019434   0.219760  -0.018279   0.000355   0.000483   0.001097
     9  F    0.001511  -0.025578   0.295472  -0.034161  -0.000001  -0.000001
    10  F    0.008155  -0.039342   0.281096  -0.032866   0.000000  -0.000200
    11  F    0.280674  -0.040846   0.008215  -0.000286  -0.034352  -0.033220
               7          8          9         10         11
     1  C   -0.019347  -0.019434   0.001511   0.008155   0.280674
     2  C    0.212267   0.219760  -0.025578  -0.039342  -0.040846
     3  C   -0.020128  -0.018279   0.295472   0.281096   0.008215
     4  F    0.001237   0.000355  -0.034161  -0.032866  -0.000286
     5  F    0.000596   0.000483  -0.000001   0.000000  -0.034352
     6  F    0.000358   0.001097  -0.000001  -0.000200  -0.033220
     7  F    9.216172  -0.027906   0.000470   0.000364   0.000985
     8  F   -0.027906   9.204525   0.000572   0.000754   0.000359
     9  F    0.000470   0.000572   9.138295  -0.034879  -0.000000
    10  F    0.000364   0.000754  -0.034879   9.156273  -0.000355
    11  F    0.000985   0.000359  -0.000000  -0.000355   9.158721
 Mulliken charges:
               1
     1  C    1.082069
     2  C    0.603594
     3  C    1.082266
     4  F   -0.339270
     5  F   -0.342960
     6  F   -0.337750
     7  F   -0.365069
     8  F   -0.362287
     9  F   -0.341699
    10  F   -0.339000
    11  F   -0.339894
 Sum of Mulliken charges =  -0.00000
 Mulliken charges with hydrogens summed into heavy atoms:
               1
     1  C    1.082069
     2  C    0.603594
     3  C    1.082266
     4  F   -0.339270
     5  F   -0.342960
     6  F   -0.337750
     7  F   -0.365069
     8  F   -0.362287
     9  F   -0.341699
    10  F   -0.339000
    11  F   -0.339894
 Electronic spatial extent (au):  <R**2>=           1282.2948
 Charge=              0.0000 electrons
 Dipole moment (field-independent basis, Debye):
    X=             -0.0279    Y=             -0.1308    Z=             -0.0720  Tot=              0.1519
 Quadrupole moment (field-independent basis, Debye-Ang):
   XX=            -56.8379   YY=            -57.2140   ZZ=            -57.2937
   XY=             -0.0180   XZ=              0.0297   YZ=             -0.0154
 Traceless Quadrupole moment (field-independent basis, Debye-Ang):
   XX=              0.2773   YY=             -0.0988   ZZ=             -0.1785
   XY=             -0.0180   XZ=              0.0297   YZ=             -0.0154
 Octapole moment (field-independent basis, Debye-Ang**2):
  XXX=              0.0111  YYY=             -1.4572  ZZZ=              0.0254  XYY=             -0.0359
  XXY=             -1.9638  XXZ=              0.1134  XZZ=             -0.0002  YZZ=              0.5206
  YYZ=              0.1247  XYZ=             -0.2726
 Hexadecapole moment (field-independent basis, Debye-Ang**3):
 XXXX=           -671.4331 YYYY=           -282.5754 ZZZZ=           -228.0478 XXXY=              0.0506
 XXXZ=             -0.7093 YYYX=              0.0063 YYYZ=              0.0627 ZZZX=              0.9349
 ZZZY=             -0.0366 XXYY=           -158.4574 XXZZ=           -150.7001 YYZZ=            -88.3908
 XXYZ=             -0.0915 YYXZ=             -0.5091 ZZXY=              0.0159
 N-N= 8.068843800943D+02 E-N=-3.780173281897D+03  KE= 9.074192186935D+02
 Calling FoFJK, ICntrl=      2127 FMM=F ISym2X=0 I1Cent= 0 IOpClX= 0 NMat=1 NMatS=1 NMatT=0.
 ***** Axes restored to original set *****
 -------------------------------------------------------------------
 Center     Atomic                   Forces (Hartrees/Bohr)
 Number     Number              X              Y              Z
 -------------------------------------------------------------------
      1        6          -0.000453583   -0.000124476   -0.000774689
      2        6           0.000688995    0.000139281   -0.001447832
      3        6           0.000442381    0.000177218   -0.000665923
      4        9           0.000111814   -0.001286510    0.002128941
      5        9           0.000025648   -0.000925609    0.000290248
      6        9           0.001001525    0.000778470    0.000248411
      7        9          -0.000246566    0.001861572    0.000780644
      8        9           0.000004697   -0.000567304    0.001024570
      9        9          -0.000448508   -0.000164058   -0.001384447
     10        9          -0.000369409    0.000410628   -0.000637230
     11        9          -0.000756995   -0.000299213    0.000437308
 -------------------------------------------------------------------
 Cartesian Forces:  Max     0.002128941 RMS     0.000818566

 GradGradGradGradGradGradGradGradGradGradGradGradGradGradGradGradGradGrad
 Berny optimization.
 Search for a local minimum.
 Step number   1 out of a maximum of    2
 All quantities printed in internal units (Hartrees-Bohrs-Radians)
 Second derivative matrix not updated -- first step.
 ITU=  0
     Eigenvalues ---    0.00205   0.00318   0.01382   0.03374   0.05325
     Eigenvalues ---    0.05353   0.05416   0.06864   0.08548   0.09228
     Eigenvalues ---    0.12491   0.14563   0.15199   0.15849   0.18443
     Eigenvalues ---    0.21696   0.24571   0.36823   0.65766   1.01626
     Eigenvalues ---    1.21782   1.29932   1.48292   1.62546   1.63789
     Eigenvalues ---    1.68572   1.73816
 Angle between quadratic step and forces=  68.18 degrees.
 Linear search not attempted -- first point.
 B after Tr=    -0.000341   -0.000027    0.000137
         Rot=    1.000000    0.000000   -0.000055   -0.000056 Ang=   0.01 deg.
 Variable       Old X    -DE/DX   Delta X   Delta X   Delta X     New X
                                 (Linear)    (Quad)   (Total)
    X1       -5.07191  -0.00045   0.00000   0.01338   0.01293  -5.05898
    Y1        0.92467  -0.00012   0.00000   0.01179   0.01120   0.93587
    Z1       -0.08180  -0.00077   0.00000  -0.01291  -0.01221  -0.09401
    X2       -3.86770   0.00069   0.00000   0.01433   0.01397  -3.85373
    Y2        2.31204   0.00014   0.00000   0.01893   0.01847   2.33051
    Z2        2.15601  -0.00145   0.00000  -0.01698  -0.01642   2.13959
    X3       -1.67653   0.00044   0.00000  -0.01036  -0.01042  -1.68696
    Y3        0.94892   0.00018   0.00000  -0.00558  -0.00580   0.94312
    Z3        3.46923  -0.00067   0.00000  -0.00158  -0.00126   3.46797
    X4        0.24622   0.00011   0.00000  -0.00222  -0.00242   0.24380
    Y4        0.78394  -0.00129   0.00000  -0.10807  -0.10807   0.67587
    Z4        1.91090   0.00213   0.00000   0.02222   0.02233   1.93323
    X5       -6.73256   0.00003   0.00000  -0.06942  -0.07015  -6.80271
    Y5        2.42701  -0.00093   0.00000  -0.04246  -0.04325   2.38376
    Z5       -1.14343   0.00029   0.00000   0.04241   0.04330  -1.10014
    X6       -6.22040   0.00100   0.00000   0.10968   0.10954  -6.11086
    Y6       -1.13900   0.00078   0.00000  -0.03566  -0.03638  -1.17537
    Z6        0.67073   0.00025   0.00000  -0.00141  -0.00060   0.67013
    X7       -2.97139  -0.00025   0.00000   0.00697   0.00627  -2.96512
    Y7        4.48729   0.00186   0.00000   0.03701   0.03666   4.52394
    Z7        1.29079   0.00078   0.00000   0.01482   0.01528   1.30607
    X8       -5.66371   0.00000   0.00000   0.01229   0.01207  -5.65164
    Y8        2.76546  -0.00057   0.00000  -0.00715  -0.00781   2.75765
    Z8        3.83957   0.00102   0.00000  -0.01071  -0.00995   3.82962
    X9       -0.98869  -0.00045   0.00000   0.01640   0.01641  -0.97229
    Y9        2.24160  -0.00016   0.00000   0.02237   0.02224   2.26384
    Z9        5.46814  -0.00138   0.00000  -0.03143  -0.03119   5.43695
   X10       -2.34342  -0.00037   0.00000  -0.08019  -0.07991  -2.42334
   Y10       -1.33128   0.00041   0.00000   0.03108   0.03078  -1.30050
   Z10        4.18061  -0.00064   0.00000   0.04796   0.04837   4.22898
   X11       -3.34456  -0.00076   0.00000  -0.00768  -0.00827  -3.35283
   Y11        0.32390  -0.00030   0.00000   0.08235   0.08195   0.40585
   Z11       -1.75822   0.00044   0.00000  -0.05816  -0.05765  -1.81587
         Item               Value     Threshold  Converged?
 Maximum Force            0.002129     0.000450     NO 
 RMS     Force            0.000819     0.000300     NO 
 Maximum Displacement     0.109545     0.001800     NO 
 RMS     Displacement     0.042285     0.001200     NO 
 Predicted change in Energy=-2.123245D-04
 GradGradGradGradGradGradGradGradGradGradGradGradGradGradGradGradGradGrad

 1\1\GINC-MU01\Force\RHF\6-31G(d)\C3F8\LBL8\15-Sep-2025\0\\# hf/6-31G(d
 ) force\\Force calculation\\0,1\C,-2.68393997,0.48931398,-0.04328519\C
 ,-2.04669789,1.22347658,1.14091372\C,-0.88718403,0.50214798,1.835836\F
 ,0.13029514,0.41484376,1.01120446\F,-3.56271532,1.28431946,-0.60507787
 \F,-3.2916948,-0.60273276,0.35493445\F,-1.57239033,2.37457124,0.683055
 49\F,-2.99710632,1.46341858,2.03181121\F,-0.5231936,1.18620425,2.89361
 415\F,-1.24008534,-0.70448514,2.21228387\F,-1.76986699,0.17140059,-0.9
 3041093\\Version=ES64L-G16RevA.03\State=1-A\HF=-909.1252498\RMSD=5.158
 e-09\RMSF=8.186e-04\Dipole=0.0056327,-0.0586313,0.010146\Quadrupole=0.
 0146043,-0.0937943,0.07919,-0.0195242,0.158027,0.0236985\PG=C01 [X(C3F
 8)]\\@


 IT CANNOT BE MY BEAUTY, FOR I HAVE NONE; AND IT CANNOT BE MY WIT,
 FOR HE HAS NOT ENOUGH TO KNOW THAT I HAVE ANY.
 -- CATHARINE SEDLEY, PUZZLED ABOUT WHY SHE WAS MISTRESS TO JAMES II
 Job cpu time:       0 days  0 hours  0 minutes  7.6 seconds.
 Elapsed time:       0 days  0 hours  0 minutes  7.7 seconds.
 File lengths (MBytes):  RWF=     28 Int=      0 D2E=      0 Chk=      4 Scr=      2
 Normal termination of Gaussian 16 at Mon Sep 15 21:54:40 2025.
