 Entering Gaussian System, Link 0=g16
 Input=gauss.gjf
 Output=gauss.log
 Initial command:
 /software/Applications/gaussian/G16.A03.AVX/g16/l1.exe "/home/lbl8/code/hartree-fock_geomopt-rev-3/example/Gau-3230644.inp" -scrdir="/home/lbl8/code/hartree-fock_geomopt-rev-3/example/"
 Entering Link 1 = /software/Applications/gaussian/G16.A03.AVX/g16/l1.exe PID=   3230655.
  
 Copyright (c) 1988,1990,1992,1993,1995,1998,2003,2009,2016,
            Gaussian, Inc.  All Rights Reserved.
  
 This is part of the Gaussian(R) 16 program.  It is based on
 the Gaussian(R) 09 system (copyright 2009, Gaussian, Inc.),
 the Gaussian(R) 03 system (copyright 2003, Gaussian, Inc.),
 the Gaussian(R) 98 system (copyright 1998, Gaussian, Inc.),
 the Gaussian(R) 94 system (copyright 1995, Gaussian, Inc.),
 the Gaussian 92(TM) system (copyright 1992, Gaussian, Inc.),
 the Gaussian 90(TM) system (copyright 1990, Gaussian, Inc.),
 the Gaussian 88(TM) system (copyright 1988, Gaussian, Inc.),
 the Gaussian 86(TM) system (copyright 1986, Carnegie Mellon
 University), and the Gaussian 82(TM) system (copyright 1983,
 Carnegie Mellon University). Gaussian is a federally registered
 trademark of Gaussian, Inc.
  
 This software contains proprietary and confidential information,
 including trade secrets, belonging to Gaussian, Inc.
  
 This software is provided under written license and may be
 used, copied, transmitted, or stored only in accord with that
 written license.
  
 The following legend is applicable only to US Government
 contracts under FAR:
  
                    RESTRICTED RIGHTS LEGEND
  
 Use, reproduction and disclosure by the US Government is
 subject to restrictions as set forth in subparagraphs (a)
 and (c) of the Commercial Computer Software - Restricted
 Rights clause in FAR 52.227-19.
  
 Gaussian, Inc.
 340 Quinnipiac St., Bldg. 40, Wallingford CT 06492
  
  
 ---------------------------------------------------------------
 Warning -- This program may not be used in any manner that
 competes with the business of Gaussian, Inc. or will provide
 assistance to any competitor of Gaussian, Inc.  The licensee
 of this program is prohibited from giving any competitor of
 Gaussian, Inc. access to this program.  By using this program,
 the user acknowledges that Gaussian, Inc. is engaged in the
 business of creating and licensing software in the field of
 computational chemistry and represents and warrants to the
 licensee that it is not a competitor of Gaussian, Inc. and that
 it will not use this program in any manner prohibited above.
 ---------------------------------------------------------------
  

 Cite this work as:
 Gaussian 16, Revision A.03,
 M. J. Frisch, G. W. Trucks, H. B. Schlegel, G. E. Scuseria, 
 M. A. Robb, J. R. Cheeseman, G. Scalmani, V. Barone, 
 G. A. Petersson, H. Nakatsuji, X. Li, M. Caricato, A. V. Marenich, 
 J. Bloino, B. G. Janesko, R. Gomperts, B. Mennucci, H. P. Hratchian, 
 J. V. Ortiz, A. F. Izmaylov, J. L. Sonnenberg, D. Williams-Young, 
 F. Ding, F. Lipparini, F. Egidi, J. Goings, B. Peng, A. Petrone, 
 T. Henderson, D. Ranasinghe, V. G. Zakrzewski, J. Gao, N. Rega, 
 G. Zheng, W. Liang, M. Hada, M. Ehara, K. Toyota, R. Fukuda, 
 J. Hasegawa, M. Ishida, T. Nakajima, Y. Honda, O. Kitao, H. Nakai, 
 T. Vreven, K. Throssell, J. A. Montgomery, Jr., J. E. Peralta, 
 F. Ogliaro, M. J. Bearpark, J. J. Heyd, E. N. Brothers, K. N. Kudin, 
 V. N. Staroverov, T. A. Keith, R. Kobayashi, J. Normand, 
 K. Raghavachari, A. P. Rendell, J. C. Burant, S. S. Iyengar, 
 J. Tomasi, M. Cossi, J. M. Millam, M. Klene, C. Adamo, R. Cammi, 
 J. W. Ochterski, R. L. Martin, K. Morokuma, O. Farkas, 
 J. B. Foresman, and D. J. Fox, Gaussian, Inc., Wallingford CT, 2016.
 
 ******************************************
 Gaussian 16:  ES64L-G16RevA.03 25-Dec-2016
                15-Sep-2025 
 ******************************************
 %chk=gauss.chk
 -------------------
 # hf/6-31G(d) force
 -------------------
 1/10=7,30=1,38=1/1,3;
 2/12=2,17=6,18=5,40=1/2;
 3/5=1,6=6,7=1,11=9,25=1,30=1,71=1/1,2,3;
 4//1;
 5/5=2,38=5/2;
 6/7=2,8=2,9=2,10=2,28=1/1;
 7/29=1/1,2,3,16;
 1/10=7,30=1/3;
 99//99;
 -----------------
 Force calculation
 -----------------
 Symbolic Z-matrix:
 Charge =  0 Multiplicity = 1
 C                    -2.6956    0.47877  -0.03661 
 C                    -2.03299   1.23136   1.12631 
 C                    -0.88167   0.50741   1.83358 
 F                     0.17661   0.49623   1.05702 
 F                    -3.56559   1.27846  -0.59829 
 F                    -3.32208  -0.58952   0.38968 
 F                    -1.54234   2.37091   0.65754 
 F                    -2.97881   1.50235   2.01409 
 F                    -0.58735   1.14454   2.94326 
 F                    -1.20859  -0.73307   2.12586 
 F                    -1.80617   0.11503  -0.92758 
 

 GradGradGradGradGradGradGradGradGradGradGradGradGradGradGradGradGradGrad
 Berny optimization.
 Initialization pass.
 Trust Radius=3.00D-01 FncErr=1.00D-07 GrdErr=1.00D-07 EigMax=2.50D+02 EigMin=1.00D-04
 Number of steps in this run=      2 maximum allowed number of steps=      2.
 GradGradGradGradGradGradGradGradGradGradGradGradGradGradGradGradGradGrad

                          Input orientation:                          
 ---------------------------------------------------------------------
 Center     Atomic      Atomic             Coordinates (Angstroms)
 Number     Number       Type             X           Y           Z
 ---------------------------------------------------------------------
      1          6           0       -2.695602    0.478769   -0.036608
      2          6           0       -2.032993    1.231361    1.126314
      3          6           0       -0.881673    0.507413    1.833583
      4          9           0        0.176606    0.496234    1.057020
      5          9           0       -3.565591    1.278457   -0.598286
      6          9           0       -3.322075   -0.589516    0.389682
      7          9           0       -1.542337    2.370908    0.657539
      8          9           0       -2.978808    1.502348    2.014087
      9          9           0       -0.587346    1.144541    2.943264
     10          9           0       -1.208591   -0.733068    2.125862
     11          9           0       -1.806169    0.115033   -0.927577
 ---------------------------------------------------------------------
                    Distance matrix (angstroms):
                    1          2          3          4          5
     1  C    0.000000
     2  C    1.535523   0.000000
     3  C    2.605527   1.532927   0.000000
     4  F    3.073419   2.329708   1.312681   0.000000
     5  F    1.308382   2.307665   3.702959   4.166047   0.000000
     6  F    1.309742   2.349458   3.040339   3.723569   2.127135
     7  F    2.322079   1.326296   2.300472   2.574637   2.619943
     8  F    2.309387   1.325195   2.328186   3.447446   2.686807
     9  F    3.710476   2.323519   1.312994   2.135847   4.629304
    10  F    2.890679   2.353235   1.315711   2.138312   4.125853
    11  F    1.310427   2.348639   2.938138   2.831137   2.134843
                    6          7          8          9         10
     6  F    0.000000
     7  F    3.464582   0.000000
     8  F    2.670659   2.158256   0.000000
     9  F    4.123892   2.764150   2.590461   0.000000
    10  F    2.738931   3.449932   2.853638   2.139979   0.000000
    11  F    2.128270   2.769689   3.457327   4.186744   3.224882
                   11
    11  F    0.000000
 Stoichiometry    C3F8
 Framework group  C1[X(C3F8)]
 Deg. of freedom    27
 Full point group                 C1      NOp   1
 Largest Abelian subgroup         C1      NOp   1
 Largest concise Abelian subgroup C1      NOp   1
                         Standard orientation:                         
 ---------------------------------------------------------------------
 Center     Atomic      Atomic             Coordinates (Angstroms)
 Number     Number       Type             X           Y           Z
 ---------------------------------------------------------------------
      1          6           0        1.302204   -0.232053    0.003483
      2          6           0       -0.002415    0.577706   -0.006084
      3          6           0       -1.303299   -0.233199   -0.007631
      4          9           0       -1.487336   -0.775418    1.173580
      5          9           0        2.301369    0.603853    0.125117
      6          9           0        1.449164   -0.901755   -1.112459
      7          9           0       -0.025014    1.341474    1.077987
      8          9           0        0.020082    1.354143   -1.079761
      9          9           0       -2.310960    0.566887   -0.269229
     10          9           0       -1.267576   -1.187008   -0.913206
     11          9           0        1.322612   -1.077146    1.004793
 ---------------------------------------------------------------------
 Rotational constants (GHZ):           1.7210165           0.9735203           0.9162626
 Standard basis: 6-31G(d) (6D, 7F)
 There are   165 symmetry adapted cartesian basis functions of A   symmetry.
 There are   165 symmetry adapted basis functions of A   symmetry.
   165 basis functions,   308 primitive gaussians,   165 cartesian basis functions
    45 alpha electrons       45 beta electrons
       nuclear repulsion energy       806.2132220089 Hartrees.
 NAtoms=   11 NActive=   11 NUniq=   11 SFac= 1.00D+00 NAtFMM=   60 NAOKFM=F Big=F
 Integral buffers will be    131072 words long.
 Raffenetti 1 integral format.
 Two-electron integral symmetry is turned on.
 One-electron integrals computed using PRISM.
 NBasis=   165 RedAO= T EigKep=  1.46D-03  NBF=   165
 NBsUse=   165 1.00D-06 EigRej= -1.00D+00 NBFU=   165
 ExpMin= 1.69D-01 ExpMax= 7.00D+03 ExpMxC= 1.05D+03 IAcc=3 IRadAn=         5 AccDes= 0.00D+00
 Harris functional with IExCor=  205 and IRadAn=       5 diagonalized for initial guess.
 HarFok:  IExCor=  205 AccDes= 0.00D+00 IRadAn=         5 IDoV= 1 UseB2=F ITyADJ=14
 ICtDFT=  3500011 ScaDFX=  1.000000  1.000000  1.000000  1.000000
 FoFCou: FMM=F IPFlag=           0 FMFlag=      100000 FMFlg1=           0
         NFxFlg=           0 DoJE=T BraDBF=F KetDBF=T FulRan=T
         wScrn=  0.000000 ICntrl=       500 IOpCl=  0 I1Cent=   200000004 NGrid=           0
         NMat0=    1 NMatS0=      1 NMatT0=    0 NMatD0=    1 NMtDS0=    0 NMtDT0=    0
 Petite list used in FoFCou.
 Keep R1 ints in memory in canonical form, NReq=96071382.
 Requested convergence on RMS density matrix=1.00D-08 within 128 cycles.
 Requested convergence on MAX density matrix=1.00D-06.
 Requested convergence on             energy=1.00D-06.
 No special actions if energy rises.
 SCF Done:  E(RHF) =  -909.124873838     A.U. after   11 cycles
            NFock= 11  Conv=0.52D-08     -V/T= 2.0019

 **********************************************************************

            Population analysis using the SCF density.

 **********************************************************************

 Orbital symmetries:
       Occupied  (A) (A) (A) (A) (A) (A) (A) (A) (A) (A) (A) (A)
                 (A) (A) (A) (A) (A) (A) (A) (A) (A) (A) (A) (A)
                 (A) (A) (A) (A) (A) (A) (A) (A) (A) (A) (A) (A)
                 (A) (A) (A) (A) (A) (A) (A) (A) (A)
       Virtual   (A) (A) (A) (A) (A) (A) (A) (A) (A) (A) (A) (A)
                 (A) (A) (A) (A) (A) (A) (A) (A) (A) (A) (A) (A)
                 (A) (A) (A) (A) (A) (A) (A) (A) (A) (A) (A) (A)
                 (A) (A) (A) (A) (A) (A) (A) (A) (A) (A) (A) (A)
                 (A) (A) (A) (A) (A) (A) (A) (A) (A) (A) (A) (A)
                 (A) (A) (A) (A) (A) (A) (A) (A) (A) (A) (A) (A)
                 (A) (A) (A) (A) (A) (A) (A) (A) (A) (A) (A) (A)
                 (A) (A) (A) (A) (A) (A) (A) (A) (A) (A) (A) (A)
                 (A) (A) (A) (A) (A) (A) (A) (A) (A) (A) (A) (A)
                 (A) (A) (A) (A) (A) (A) (A) (A) (A) (A) (A) (A)
 The electronic state is 1-A.
 Alpha  occ. eigenvalues --  -26.38009 -26.38009 -26.37771 -26.37756 -26.37734
 Alpha  occ. eigenvalues --  -26.37688 -26.37516 -26.37412 -11.54791 -11.54718
 Alpha  occ. eigenvalues --  -11.47965  -1.78949  -1.77877  -1.73235  -1.68347
 Alpha  occ. eigenvalues --   -1.67797  -1.67577  -1.67520  -1.66332  -1.12418
 Alpha  occ. eigenvalues --   -1.02788  -0.95705  -0.90901  -0.88815  -0.87757
 Alpha  occ. eigenvalues --   -0.86541  -0.85706  -0.85529  -0.81517  -0.76186
 Alpha  occ. eigenvalues --   -0.75428  -0.74552  -0.73879  -0.73448  -0.73167
 Alpha  occ. eigenvalues --   -0.72140  -0.70240  -0.70133  -0.68590  -0.68509
 Alpha  occ. eigenvalues --   -0.68237  -0.67402  -0.67322  -0.63293  -0.56031
 Alpha virt. eigenvalues --    0.25338   0.25725   0.37537   0.38955   0.42070
 Alpha virt. eigenvalues --    0.44391   0.45858   0.49443   0.51754   0.55444
 Alpha virt. eigenvalues --    0.64112   0.64956   0.69008   0.69319   0.70443
 Alpha virt. eigenvalues --    0.76546   0.77783   0.85441   0.87194   0.88611
 Alpha virt. eigenvalues --    1.09176   1.11639   1.21178   1.24570   1.26464
 Alpha virt. eigenvalues --    1.30262   1.33445   1.34948   1.35312   1.37296
 Alpha virt. eigenvalues --    1.41509   1.44530   1.51641   1.54343   1.54704
 Alpha virt. eigenvalues --    1.56801   1.57197   1.58555   1.59852   1.62580
 Alpha virt. eigenvalues --    1.62957   1.63685   1.64022   1.64257   1.64688
 Alpha virt. eigenvalues --    1.66922   1.68649   1.69725   1.70799   1.74464
 Alpha virt. eigenvalues --    1.78879   1.83935   1.85992   1.87747   1.88094
 Alpha virt. eigenvalues --    1.95299   1.96733   1.97371   2.01550   2.04594
 Alpha virt. eigenvalues --    2.05298   2.06806   2.07071   2.09748   2.09843
 Alpha virt. eigenvalues --    2.10569   2.16143   2.18933   2.21586   2.26018
 Alpha virt. eigenvalues --    2.29466   2.30472   2.30985   2.31528   2.32157
 Alpha virt. eigenvalues --    2.37299   2.38304   2.40569   2.42256   2.42611
 Alpha virt. eigenvalues --    2.43919   2.46650   2.48568   2.53710   2.62482
 Alpha virt. eigenvalues --    2.64347   2.67663   2.69738   2.71629   2.76087
 Alpha virt. eigenvalues --    2.80233   2.81438   2.94400   3.00473   3.02601
 Alpha virt. eigenvalues --    3.13313   3.16176   3.18444   3.26872   3.27651
 Alpha virt. eigenvalues --    3.28580   3.38188   3.41524   3.42013   3.42734
 Alpha virt. eigenvalues --    3.45869   3.47948   3.49600   3.54213   4.55357
 Alpha virt. eigenvalues --    4.65685   4.73446   4.83578   5.08687   5.22409
 Alpha virt. eigenvalues --    5.61041   5.72248   5.95975   6.10653   6.32980
          Condensed to atoms (all electrons):
               1          2          3          4          5          6
     1  C    3.776854   0.367249  -0.059850   0.002549   0.295127   0.283802
     2  C    0.367249   4.442652   0.364148  -0.037587  -0.027414  -0.035621
     3  C   -0.059850   0.364148   3.779238   0.282628   0.001557   0.002697
     4  F    0.002549  -0.037587   0.282628   9.157104  -0.000002  -0.000020
     5  F    0.295127  -0.027414   0.001557  -0.000002   9.140004  -0.035383
     6  F    0.283802  -0.035621   0.002697  -0.000020  -0.035383   9.153950
     7  F   -0.018245   0.213656  -0.020323   0.001153   0.000645   0.000342
     8  F   -0.019795   0.218402  -0.017598   0.000350   0.000522   0.001079
     9  F    0.001489  -0.025499   0.293975  -0.034460  -0.000001  -0.000002
    10  F    0.009428  -0.038986   0.280302  -0.033310   0.000000  -0.000272
    11  F    0.282705  -0.041258   0.009103  -0.000123  -0.034018  -0.034596
               7          8          9         10         11
     1  C   -0.018245  -0.019795   0.001489   0.009428   0.282705
     2  C    0.213656   0.218402  -0.025499  -0.038986  -0.041258
     3  C   -0.020323  -0.017598   0.293975   0.280302   0.009103
     4  F    0.001153   0.000350  -0.034460  -0.033310  -0.000123
     5  F    0.000645   0.000522  -0.000001   0.000000  -0.034018
     6  F    0.000342   0.001079  -0.000002  -0.000272  -0.034596
     7  F    9.213557  -0.028651   0.000360   0.000365   0.000893
     8  F   -0.028651   9.206817   0.000489   0.000567   0.000360
     9  F    0.000360   0.000489   9.140045  -0.034028   0.000000
    10  F    0.000365   0.000567  -0.034028   9.157957  -0.000498
    11  F    0.000893   0.000360   0.000000  -0.000498   9.155016
 Mulliken charges:
               1
     1  C    1.078689
     2  C    0.600257
     3  C    1.084121
     4  F   -0.338283
     5  F   -0.341038
     6  F   -0.335975
     7  F   -0.363752
     8  F   -0.362542
     9  F   -0.342368
    10  F   -0.341525
    11  F   -0.337585
 Sum of Mulliken charges =  -0.00000
 Mulliken charges with hydrogens summed into heavy atoms:
               1
     1  C    1.078689
     2  C    0.600257
     3  C    1.084121
     4  F   -0.338283
     5  F   -0.341038
     6  F   -0.335975
     7  F   -0.363752
     8  F   -0.362542
     9  F   -0.342368
    10  F   -0.341525
    11  F   -0.337585
 Electronic spatial extent (au):  <R**2>=           1285.7825
 Charge=             -0.0000 electrons
 Dipole moment (field-independent basis, Debye):
    X=              0.0020    Y=             -0.1369    Z=             -0.0313  Tot=              0.1405
 Quadrupole moment (field-independent basis, Debye-Ang):
   XX=            -56.8662   YY=            -57.2690   ZZ=            -57.2681
   XY=             -0.0133   XZ=              0.0787   YZ=             -0.0160
 Traceless Quadrupole moment (field-independent basis, Debye-Ang):
   XX=              0.2682   YY=             -0.1346   ZZ=             -0.1337
   XY=             -0.0133   XZ=              0.0787   YZ=             -0.0160
 Octapole moment (field-independent basis, Debye-Ang**2):
  XXX=              0.1836  YYY=             -1.3134  ZZZ=             -0.3181  XYY=             -0.0738
  XXY=             -1.8666  XXZ=              0.1967  XZZ=              0.1229  YZZ=              0.3847
  YYZ=              0.3181  XYZ=             -0.3841
 Hexadecapole moment (field-independent basis, Debye-Ang**3):
 XXXX=           -673.9073 YYYY=           -284.1544 ZZZZ=           -227.0858 XXXY=             -0.1241
 XXXZ=             -1.0552 YYYX=             -0.1640 YYYZ=             -0.2061 ZZZX=              1.2466
 ZZZY=              0.1108 XXYY=           -159.1223 XXZZ=           -151.2616 YYZZ=            -88.3936
 XXYZ=              0.2913 YYXZ=             -0.7671 ZZXY=              0.1660
 N-N= 8.062132220089D+02 E-N=-3.778828459876D+03  KE= 9.074170501805D+02
 Calling FoFJK, ICntrl=      2127 FMM=F ISym2X=0 I1Cent= 0 IOpClX= 0 NMat=1 NMatS=1 NMatT=0.
 ***** Axes restored to original set *****
 -------------------------------------------------------------------
 Center     Atomic                   Forces (Hartrees/Bohr)
 Number     Number              X              Y              Z
 -------------------------------------------------------------------
      1        6           0.000245827    0.000707466    0.001598910
      2        6           0.000402493   -0.000589266   -0.000174329
      3        6           0.001694064   -0.001829685    0.001344064
      4        9          -0.001414162   -0.001566605    0.001089654
      5        9          -0.001584553    0.001767091   -0.002504041
      6        9          -0.000049203   -0.000713749    0.002561676
      7        9          -0.001277978    0.000866715   -0.001306879
      8        9          -0.000121753   -0.001444260    0.001086619
      9        9          -0.000865543   -0.001709064   -0.002780273
     10        9           0.000261271    0.003635006   -0.000237009
     11        9           0.002709538    0.000876352   -0.000678392
 -------------------------------------------------------------------
 Cartesian Forces:  Max     0.003635006 RMS     0.001527343

 GradGradGradGradGradGradGradGradGradGradGradGradGradGradGradGradGradGrad
 Berny optimization.
 Search for a local minimum.
 Step number   1 out of a maximum of    2
 All quantities printed in internal units (Hartrees-Bohrs-Radians)
 Second derivative matrix not updated -- first step.
 ITU=  0
     Eigenvalues ---    0.00187   0.00295   0.01382   0.03358   0.05315
     Eigenvalues ---    0.05353   0.05414   0.06880   0.08550   0.09231
     Eigenvalues ---    0.12460   0.14521   0.15135   0.15818   0.18406
     Eigenvalues ---    0.21635   0.24546   0.36650   0.65730   1.02008
     Eigenvalues ---    1.21931   1.30012   1.47853   1.62464   1.63610
     Eigenvalues ---    1.69207   1.73440
 Quadratic step=5.482D-01 exceeds max=3.000D-01 adjusted using Lamda=-2.279D-03.
 Angle between NR and scaled steps=  10.44 degrees.
 Angle between quadratic step and forces=  71.10 degrees.
 Linear search not attempted -- first point.
 B after Tr=    -0.000065   -0.000682    0.000043
         Rot=    1.000000    0.000072   -0.000033    0.000010 Ang=   0.01 deg.
 Variable       Old X    -DE/DX   Delta X   Delta X   Delta X     New X
                                 (Linear)    (Quad)   (Total)
    X1       -5.09395   0.00025   0.00000   0.02106   0.02101  -5.07294
    Y1        0.90474   0.00071   0.00000   0.01870   0.01811   0.92286
    Z1       -0.06918   0.00160   0.00000  -0.00620  -0.00595  -0.07513
    X2       -3.84180   0.00040   0.00000  -0.01982  -0.01969  -3.86149
    Y2        2.32693  -0.00059   0.00000   0.00511   0.00482   2.33175
    Z2        2.12843  -0.00017   0.00000   0.01489   0.01485   2.14328
    X3       -1.66612   0.00169   0.00000  -0.00621  -0.00603  -1.67215
    Y3        0.95887  -0.00183   0.00000  -0.00297  -0.00312   0.95575
    Z3        3.46497   0.00134   0.00000  -0.01356  -0.01355   3.45142
    X4        0.33374  -0.00141   0.00000  -0.05443  -0.05435   0.27938
    Y4        0.93775  -0.00157   0.00000  -0.13169  -0.13210   0.80565
    Z4        1.99748   0.00109   0.00000  -0.07273  -0.07282   1.92465
    X5       -6.73799  -0.00158   0.00000   0.02461   0.02452  -6.71347
    Y5        2.41593   0.00177   0.00000   0.00478   0.00407   2.42000
    Z5       -1.13060  -0.00250   0.00000  -0.04300  -0.04286  -1.17346
    X6       -6.27781  -0.00005   0.00000   0.03870   0.03866  -6.23915
    Y6       -1.11402  -0.00071   0.00000   0.00522   0.00477  -1.10925
    Z6        0.73639   0.00256   0.00000  -0.00694  -0.00633   0.73006
    X7       -2.91460  -0.00128   0.00000  -0.07687  -0.07675  -2.99135
    Y7        4.48037   0.00087   0.00000   0.04330   0.04286   4.52323
    Z7        1.24257  -0.00131   0.00000   0.04448   0.04407   1.28664
    X8       -5.62913  -0.00012   0.00000  -0.02866  -0.02842  -5.65755
    Y8        2.83903  -0.00144   0.00000  -0.08219  -0.08220   2.75683
    Z8        3.80607   0.00109   0.00000   0.03325   0.03327   3.83934
    X9       -1.10992  -0.00087   0.00000   0.09121   0.09156  -1.01837
    Y9        2.16287  -0.00171   0.00000   0.05086   0.05099   2.21386
    Z9        5.56196  -0.00278   0.00000  -0.07649  -0.07670   5.48526
   X10       -2.28391   0.00026   0.00000  -0.06409  -0.06392  -2.34782
   Y10       -1.38530   0.00364   0.00000   0.04405   0.04401  -1.34129
   Z10        4.01730  -0.00024   0.00000   0.09600   0.09639   4.11368
   X11       -3.41316   0.00271   0.00000   0.07359   0.07341  -3.33975
   Y11        0.21738   0.00088   0.00000   0.04864   0.04778   0.26516
   Z11       -1.75287  -0.00068   0.00000   0.02941   0.02963  -1.72323
         Item               Value     Threshold  Converged?
 Maximum Force            0.003635     0.000450     NO 
 RMS     Force            0.001527     0.000300     NO 
 Maximum Displacement     0.132099     0.001800     NO 
 RMS     Displacement     0.052356     0.001200     NO 
 Predicted change in Energy=-5.304763D-04
 GradGradGradGradGradGradGradGradGradGradGradGradGradGradGradGradGradGrad

 1\1\GINC-MU01\Force\RHF\6-31G(d)\C3F8\LBL8\15-Sep-2025\0\\# hf/6-31G(d
 ) force\\Force calculation\\0,1\C,-2.69560171,0.47876886,-0.03660804\C
 ,-2.03299313,1.23136072,1.12631402\C,-0.88167348,0.50741273,1.83358274
 \F,0.17660615,0.49623441,1.05701971\F,-3.56559087,1.27845675,-0.598286
 17\F,-3.32207538,-0.58951611,0.38968201\F,-1.54233737,2.37090847,0.657
 53929\F,-2.9788082,1.50234792,2.01408675\F,-0.58734555,1.14454064,2.94
 326408\F,-1.20859089,-0.73306845,2.12586172\F,-1.80616904,0.11503251,-
 0.92757671\\Version=ES64L-G16RevA.03\State=1-A\HF=-909.1248738\RMSD=5.
 233e-09\RMSF=1.527e-03\Dipole=0.0076066,-0.0542304,-0.0075295\Quadrupo
 le=-0.0061151,-0.1091388,0.1152539,-0.0136117,0.1438353,-0.0018075\PG=
 C01 [X(C3F8)]\\@


 IT IS BY LOGIC THAT WE PROVE, BUT BY INTUITION THAT WE DISCOVER.
     -- J.H.POINCARE (1854-1912)
 Job cpu time:       0 days  0 hours  0 minutes  7.6 seconds.
 Elapsed time:       0 days  0 hours  0 minutes  7.6 seconds.
 File lengths (MBytes):  RWF=     28 Int=      0 D2E=      0 Chk=      4 Scr=      2
 Normal termination of Gaussian 16 at Mon Sep 15 21:54:17 2025.
