 Entering Gaussian System, Link 0=g16
 Input=gauss.gjf
 Output=gauss.log
 Initial command:
 /software/Applications/gaussian/G16.A03.AVX/g16/l1.exe "/home/lbl8/code/hartree-fock_geomopt-rev-3/example/Gau-3229589.inp" -scrdir="/home/lbl8/code/hartree-fock_geomopt-rev-3/example/"
 Entering Link 1 = /software/Applications/gaussian/G16.A03.AVX/g16/l1.exe PID=   3229591.
  
 Copyright (c) 1988,1990,1992,1993,1995,1998,2003,2009,2016,
            Gaussian, Inc.  All Rights Reserved.
  
 This is part of the Gaussian(R) 16 program.  It is based on
 the Gaussian(R) 09 system (copyright 2009, Gaussian, Inc.),
 the Gaussian(R) 03 system (copyright 2003, Gaussian, Inc.),
 the Gaussian(R) 98 system (copyright 1998, Gaussian, Inc.),
 the Gaussian(R) 94 system (copyright 1995, Gaussian, Inc.),
 the Gaussian 92(TM) system (copyright 1992, Gaussian, Inc.),
 the Gaussian 90(TM) system (copyright 1990, Gaussian, Inc.),
 the Gaussian 88(TM) system (copyright 1988, Gaussian, Inc.),
 the Gaussian 86(TM) system (copyright 1986, Carnegie Mellon
 University), and the Gaussian 82(TM) system (copyright 1983,
 Carnegie Mellon University). Gaussian is a federally registered
 trademark of Gaussian, Inc.
  
 This software contains proprietary and confidential information,
 including trade secrets, belonging to Gaussian, Inc.
  
 This software is provided under written license and may be
 used, copied, transmitted, or stored only in accord with that
 written license.
  
 The following legend is applicable only to US Government
 contracts under FAR:
  
                    RESTRICTED RIGHTS LEGEND
  
 Use, reproduction and disclosure by the US Government is
 subject to restrictions as set forth in subparagraphs (a)
 and (c) of the Commercial Computer Software - Restricted
 Rights clause in FAR 52.227-19.
  
 Gaussian, Inc.
 340 Quinnipiac St., Bldg. 40, Wallingford CT 06492
  
  
 ---------------------------------------------------------------
 Warning -- This program may not be used in any manner that
 competes with the business of Gaussian, Inc. or will provide
 assistance to any competitor of Gaussian, Inc.  The licensee
 of this program is prohibited from giving any competitor of
 Gaussian, Inc. access to this program.  By using this program,
 the user acknowledges that Gaussian, Inc. is engaged in the
 business of creating and licensing software in the field of
 computational chemistry and represents and warrants to the
 licensee that it is not a competitor of Gaussian, Inc. and that
 it will not use this program in any manner prohibited above.
 ---------------------------------------------------------------
  

 Cite this work as:
 Gaussian 16, Revision A.03,
 M. J. Frisch, G. W. Trucks, H. B. Schlegel, G. E. Scuseria, 
 M. A. Robb, J. R. Cheeseman, G. Scalmani, V. Barone, 
 G. A. Petersson, H. Nakatsuji, X. Li, M. Caricato, A. V. Marenich, 
 J. Bloino, B. G. Janesko, R. Gomperts, B. Mennucci, H. P. Hratchian, 
 J. V. Ortiz, A. F. Izmaylov, J. L. Sonnenberg, D. Williams-Young, 
 F. Ding, F. Lipparini, F. Egidi, J. Goings, B. Peng, A. Petrone, 
 T. Henderson, D. Ranasinghe, V. G. Zakrzewski, J. Gao, N. Rega, 
 G. Zheng, W. Liang, M. Hada, M. Ehara, K. Toyota, R. Fukuda, 
 J. Hasegawa, M. Ishida, T. Nakajima, Y. Honda, O. Kitao, H. Nakai, 
 T. Vreven, K. Throssell, J. A. Montgomery, Jr., J. E. Peralta, 
 F. Ogliaro, M. J. Bearpark, J. J. Heyd, E. N. Brothers, K. N. Kudin, 
 V. N. Staroverov, T. A. Keith, R. Kobayashi, J. Normand, 
 K. Raghavachari, A. P. Rendell, J. C. Burant, S. S. Iyengar, 
 J. Tomasi, M. Cossi, J. M. Millam, M. Klene, C. Adamo, R. Cammi, 
 J. W. Ochterski, R. L. Martin, K. Morokuma, O. Farkas, 
 J. B. Foresman, and D. J. Fox, Gaussian, Inc., Wallingford CT, 2016.
 
 ******************************************
 Gaussian 16:  ES64L-G16RevA.03 25-Dec-2016
                15-Sep-2025 
 ******************************************
 %chk=gauss.chk
 -------------------
 # hf/6-31G(d) force
 -------------------
 1/10=7,30=1,38=1/1,3;
 2/12=2,17=6,18=5,40=1/2;
 3/5=1,6=6,7=1,11=9,25=1,30=1,71=1/1,2,3;
 4//1;
 5/5=2,38=5/2;
 6/7=2,8=2,9=2,10=2,28=1/1;
 7/29=1/1,2,3,16;
 1/10=7,30=1/3;
 99//99;
 -----------------
 Force calculation
 -----------------
 Symbolic Z-matrix:
 Charge =  0 Multiplicity = 1
 C                    -2.71109   0.4702   -0.01209 
 C                    -2.06356   1.23705   1.15626 
 C                    -0.85104   0.53102   1.78502 
 F                     0.19893   0.66968   1.01333 
 F                    -3.38337   1.2996   -0.77494 
 F                    -3.53255  -0.44539   0.44593 
 F                    -1.6533    2.41827   0.71459 
 F                    -2.9824    1.42389   2.09338 
 F                    -0.5889    1.06145   2.95388 
 F                    -1.09588  -0.7494    1.94745 
 F                    -1.78144  -0.11389  -0.73792 
 

 GradGradGradGradGradGradGradGradGradGradGradGradGradGradGradGradGradGrad
 Berny optimization.
 Initialization pass.
 Trust Radius=3.00D-01 FncErr=1.00D-07 GrdErr=1.00D-07 EigMax=2.50D+02 EigMin=1.00D-04
 Number of steps in this run=      2 maximum allowed number of steps=      2.
 GradGradGradGradGradGradGradGradGradGradGradGradGradGradGradGradGradGrad

                          Input orientation:                          
 ---------------------------------------------------------------------
 Center     Atomic      Atomic             Coordinates (Angstroms)
 Number     Number       Type             X           Y           Z
 ---------------------------------------------------------------------
      1          6           0       -2.711085    0.470196   -0.012094
      2          6           0       -2.063555    1.237053    1.156264
      3          6           0       -0.851041    0.531015    1.785022
      4          9           0        0.198933    0.669681    1.013331
      5          9           0       -3.383369    1.299600   -0.774944
      6          9           0       -3.532547   -0.445388    0.445927
      7          9           0       -1.653300    2.418269    0.714594
      8          9           0       -2.982395    1.423892    2.093376
      9          9           0       -0.588901    1.061454    2.953881
     10          9           0       -1.095879   -0.749405    1.947447
     11          9           0       -1.781440   -0.113887   -0.737924
 ---------------------------------------------------------------------
                    Distance matrix (angstroms):
                    1          2          3          4          5
     1  C    0.000000
     2  C    1.540268   0.000000
     3  C    2.587101   1.537536   0.000000
     4  F    3.091843   2.336920   1.310412   0.000000
     5  F    1.312180   2.339954   3.681961   4.053099   0.000000
     6  F    1.312584   2.343741   3.152304   3.935641   2.134892
     7  F    2.332804   1.326142   2.313258   2.564677   2.542299
     8  F    2.327262   1.325653   2.331305   3.443281   2.898877
     9  F    3.694625   2.331709   1.310081   2.130705   4.665822
    10  F    2.817111   2.346994   1.313698   2.136098   4.103955
    11  F    1.316139   2.343624   2.765284   2.757308   2.136701
                    6          7          8          9         10
     6  F    0.000000
     7  F    3.435737   0.000000
     8  F    2.551659   2.157850   0.000000
     9  F    4.150357   2.826357   2.569172   0.000000
    10  F    2.878253   3.444532   2.881573   2.132872   0.000000
    11  F    2.139573   2.921993   3.438505   4.053763   2.843429
                   11
    11  F    0.000000
 Stoichiometry    C3F8
 Framework group  C1[X(C3F8)]
 Deg. of freedom    27
 Full point group                 C1      NOp   1
 Largest Abelian subgroup         C1      NOp   1
 Largest concise Abelian subgroup C1      NOp   1
                         Standard orientation:                         
 ---------------------------------------------------------------------
 Center     Atomic      Atomic             Coordinates (Angstroms)
 Number     Number       Type             X           Y           Z
 ---------------------------------------------------------------------
      1          6           0       -1.295941   -0.228382    0.000381
      2          6           0        0.000858    0.602719    0.002900
      3          6           0        1.291153   -0.233436    0.003347
      4          9           0        1.513691   -0.715874   -1.194531
      5          9           0       -2.287763    0.489713   -0.471261
      6          9           0       -1.592057   -0.610988    1.220547
      7          9           0        0.019518    1.365542   -1.081723
      8          9           0       -0.004117    1.381122    1.075942
      9          9           0        2.305112    0.520243    0.349999
     10          9           0        1.194926   -1.229736    0.854188
     11          9           0       -1.146692   -1.293955   -0.757578
 ---------------------------------------------------------------------
 Rotational constants (GHZ):           1.7112982           0.9807660           0.9210255
 Standard basis: 6-31G(d) (6D, 7F)
 There are   165 symmetry adapted cartesian basis functions of A   symmetry.
 There are   165 symmetry adapted basis functions of A   symmetry.
   165 basis functions,   308 primitive gaussians,   165 cartesian basis functions
    45 alpha electrons       45 beta electrons
       nuclear repulsion energy       806.7404781449 Hartrees.
 NAtoms=   11 NActive=   11 NUniq=   11 SFac= 1.00D+00 NAtFMM=   60 NAOKFM=F Big=F
 Integral buffers will be    131072 words long.
 Raffenetti 1 integral format.
 Two-electron integral symmetry is turned on.
 One-electron integrals computed using PRISM.
 NBasis=   165 RedAO= T EigKep=  1.15D-03  NBF=   165
 NBsUse=   165 1.00D-06 EigRej= -1.00D+00 NBFU=   165
 ExpMin= 1.69D-01 ExpMax= 7.00D+03 ExpMxC= 1.05D+03 IAcc=3 IRadAn=         5 AccDes= 0.00D+00
 Harris functional with IExCor=  205 and IRadAn=       5 diagonalized for initial guess.
 HarFok:  IExCor=  205 AccDes= 0.00D+00 IRadAn=         5 IDoV= 1 UseB2=F ITyADJ=14
 ICtDFT=  3500011 ScaDFX=  1.000000  1.000000  1.000000  1.000000
 FoFCou: FMM=F IPFlag=           0 FMFlag=      100000 FMFlg1=           0
         NFxFlg=           0 DoJE=T BraDBF=F KetDBF=T FulRan=T
         wScrn=  0.000000 ICntrl=       500 IOpCl=  0 I1Cent=   200000004 NGrid=           0
         NMat0=    1 NMatS0=      1 NMatT0=    0 NMatD0=    1 NMtDS0=    0 NMtDT0=    0
 Petite list used in FoFCou.
 Keep R1 ints in memory in canonical form, NReq=96071382.
 Requested convergence on RMS density matrix=1.00D-08 within 128 cycles.
 Requested convergence on MAX density matrix=1.00D-06.
 Requested convergence on             energy=1.00D-06.
 No special actions if energy rises.
 SCF Done:  E(RHF) =  -909.123709137     A.U. after   11 cycles
            NFock= 11  Conv=0.54D-08     -V/T= 2.0019

 **********************************************************************

            Population analysis using the SCF density.

 **********************************************************************

 Orbital symmetries:
       Occupied  (A) (A) (A) (A) (A) (A) (A) (A) (A) (A) (A) (A)
                 (A) (A) (A) (A) (A) (A) (A) (A) (A) (A) (A) (A)
                 (A) (A) (A) (A) (A) (A) (A) (A) (A) (A) (A) (A)
                 (A) (A) (A) (A) (A) (A) (A) (A) (A)
       Virtual   (A) (A) (A) (A) (A) (A) (A) (A) (A) (A) (A) (A)
                 (A) (A) (A) (A) (A) (A) (A) (A) (A) (A) (A) (A)
                 (A) (A) (A) (A) (A) (A) (A) (A) (A) (A) (A) (A)
                 (A) (A) (A) (A) (A) (A) (A) (A) (A) (A) (A) (A)
                 (A) (A) (A) (A) (A) (A) (A) (A) (A) (A) (A) (A)
                 (A) (A) (A) (A) (A) (A) (A) (A) (A) (A) (A) (A)
                 (A) (A) (A) (A) (A) (A) (A) (A) (A) (A) (A) (A)
                 (A) (A) (A) (A) (A) (A) (A) (A) (A) (A) (A) (A)
                 (A) (A) (A) (A) (A) (A) (A) (A) (A) (A) (A) (A)
                 (A) (A) (A) (A) (A) (A) (A) (A) (A) (A) (A) (A)
 The electronic state is 1-A.
 Alpha  occ. eigenvalues --  -26.38003 -26.37983 -26.37745 -26.37741 -26.37692
 Alpha  occ. eigenvalues --  -26.37663 -26.37473 -26.37421 -11.54841 -11.54702
 Alpha  occ. eigenvalues --  -11.48048  -1.78862  -1.77773  -1.73202  -1.68295
 Alpha  occ. eigenvalues --   -1.67782  -1.67549  -1.67497  -1.66192  -1.12372
 Alpha  occ. eigenvalues --   -1.02585  -0.95593  -0.90804  -0.88932  -0.87636
 Alpha  occ. eigenvalues --   -0.86557  -0.85575  -0.85487  -0.81419  -0.76255
 Alpha  occ. eigenvalues --   -0.75466  -0.74321  -0.74073  -0.73651  -0.73186
 Alpha  occ. eigenvalues --   -0.71760  -0.70234  -0.70173  -0.68438  -0.68414
 Alpha  occ. eigenvalues --   -0.67903  -0.67619  -0.67293  -0.63249  -0.55990
 Alpha virt. eigenvalues --    0.25112   0.25436   0.36620   0.38992   0.42040
 Alpha virt. eigenvalues --    0.44309   0.46744   0.50102   0.51357   0.55771
 Alpha virt. eigenvalues --    0.64303   0.64870   0.68884   0.69017   0.71451
 Alpha virt. eigenvalues --    0.76534   0.76880   0.85526   0.87573   0.88794
 Alpha virt. eigenvalues --    1.06347   1.11846   1.22655   1.23816   1.25858
 Alpha virt. eigenvalues --    1.30840   1.33981   1.34283   1.34875   1.37223
 Alpha virt. eigenvalues --    1.40455   1.45887   1.52873   1.53090   1.55431
 Alpha virt. eigenvalues --    1.56378   1.57933   1.58626   1.59248   1.61952
 Alpha virt. eigenvalues --    1.62268   1.63576   1.64170   1.64508   1.65457
 Alpha virt. eigenvalues --    1.66012   1.68264   1.70469   1.71543   1.77173
 Alpha virt. eigenvalues --    1.79280   1.83358   1.83854   1.87941   1.89728
 Alpha virt. eigenvalues --    1.95058   1.97410   1.97965   2.03172   2.04731
 Alpha virt. eigenvalues --    2.05391   2.06359   2.06857   2.09866   2.10367
 Alpha virt. eigenvalues --    2.10414   2.16683   2.19057   2.22071   2.27221
 Alpha virt. eigenvalues --    2.29054   2.30304   2.30434   2.32073   2.32424
 Alpha virt. eigenvalues --    2.37481   2.38078   2.39675   2.41845   2.42549
 Alpha virt. eigenvalues --    2.44299   2.45400   2.52054   2.56027   2.60093
 Alpha virt. eigenvalues --    2.61267   2.65074   2.66351   2.74854   2.78867
 Alpha virt. eigenvalues --    2.81073   2.82571   2.93142   2.95057   3.03157
 Alpha virt. eigenvalues --    3.11835   3.15351   3.16941   3.25033   3.28489
 Alpha virt. eigenvalues --    3.29347   3.39049   3.41427   3.42344   3.43334
 Alpha virt. eigenvalues --    3.44146   3.46117   3.47095   3.54489   4.54304
 Alpha virt. eigenvalues --    4.60718   4.71047   4.81308   5.09794   5.26191
 Alpha virt. eigenvalues --    5.52062   5.65283   6.00028   6.06851   6.32712
          Condensed to atoms (all electrons):
               1          2          3          4          5          6
     1  C    3.776572   0.367645  -0.066923   0.001581   0.293465   0.284742
     2  C    0.367645   4.436741   0.372707  -0.035747  -0.024528  -0.034976
     3  C   -0.066923   0.372707   3.775010   0.282150   0.001412   0.001212
     4  F    0.001581  -0.035747   0.282150   9.156090  -0.000004   0.000002
     5  F    0.293465  -0.024528   0.001412  -0.000004   9.137931  -0.034696
     6  F    0.284742  -0.034976   0.001212   0.000002  -0.034696   9.152323
     7  F   -0.017531   0.215759  -0.019751   0.001082   0.000296   0.000342
     8  F   -0.018997   0.218153  -0.017992   0.000346   0.000170   0.000971
     9  F    0.001445  -0.025044   0.295455  -0.034866  -0.000001  -0.000003
    10  F    0.012284  -0.040606   0.278835  -0.033052   0.000001  -0.000110
    11  F    0.278122  -0.039535   0.012218  -0.000172  -0.034093  -0.033039
               7          8          9         10         11
     1  C   -0.017531  -0.018997   0.001445   0.012284   0.278122
     2  C    0.215759   0.218153  -0.025044  -0.040606  -0.039535
     3  C   -0.019751  -0.017992   0.295455   0.278835   0.012218
     4  F    0.001082   0.000346  -0.034866  -0.033052  -0.000172
     5  F    0.000296   0.000170  -0.000001   0.000001  -0.034093
     6  F    0.000342   0.000971  -0.000003  -0.000110  -0.033039
     7  F    9.209119  -0.029215   0.000271   0.000372   0.000443
     8  F   -0.029215   9.205508   0.000474   0.000535   0.000366
     9  F    0.000271   0.000474   9.136721  -0.034453   0.000001
    10  F    0.000372   0.000535  -0.034453   9.160204  -0.001272
    11  F    0.000443   0.000366   0.000001  -0.001272   9.161278
 Mulliken charges:
               1
     1  C    1.087596
     2  C    0.589431
     3  C    1.085668
     4  F   -0.337409
     5  F   -0.339954
     6  F   -0.336769
     7  F   -0.361187
     8  F   -0.360319
     9  F   -0.340002
    10  F   -0.342737
    11  F   -0.344318
 Sum of Mulliken charges =  -0.00000
 Mulliken charges with hydrogens summed into heavy atoms:
               1
     1  C    1.087596
     2  C    0.589431
     3  C    1.085668
     4  F   -0.337409
     5  F   -0.339954
     6  F   -0.336769
     7  F   -0.361187
     8  F   -0.360319
     9  F   -0.340002
    10  F   -0.342737
    11  F   -0.344318
 Electronic spatial extent (au):  <R**2>=           1281.5064
 Charge=             -0.0000 electrons
 Dipole moment (field-independent basis, Debye):
    X=             -0.0189    Y=             -0.0579    Z=              0.0190  Tot=              0.0638
 Quadrupole moment (field-independent basis, Debye-Ang):
   XX=            -56.8488   YY=            -57.2612   ZZ=            -57.2829
   XY=             -0.0272   XZ=              0.0323   YZ=              0.0082
 Traceless Quadrupole moment (field-independent basis, Debye-Ang):
   XX=              0.2821   YY=             -0.1302   ZZ=             -0.1519
   XY=             -0.0272   XZ=              0.0323   YZ=              0.0082
 Octapole moment (field-independent basis, Debye-Ang**2):
  XXX=              0.0489  YYY=             -1.1214  ZZZ=             -0.2078  XYY=             -0.1215
  XXY=             -1.7629  XXZ=              0.0167  XZZ=              0.1648  YZZ=             -0.3389
  YYZ=              0.0829  XYZ=             -0.7991
 Hexadecapole moment (field-independent basis, Debye-Ang**3):
 XXXX=           -667.6372 YYYY=           -287.3276 ZZZZ=           -227.5729 XXXY=             -0.2354
 XXXZ=             -2.0642 YYYX=             -0.1551 YYYZ=             -0.1216 ZZZX=              2.4578
 ZZZY=              0.0686 XXYY=           -157.0424 XXZZ=           -151.1166 YYZZ=            -88.6415
 XXYZ=              0.2463 YYXZ=             -1.3514 ZZXY=              0.2797
 N-N= 8.067404781449D+02 E-N=-3.779886375337D+03  KE= 9.073870195237D+02
 Calling FoFJK, ICntrl=      2127 FMM=F ISym2X=0 I1Cent= 0 IOpClX= 0 NMat=1 NMatS=1 NMatT=0.
 ***** Axes restored to original set *****
 -------------------------------------------------------------------
 Center     Atomic                   Forces (Hartrees/Bohr)
 Number     Number              X              Y              Z
 -------------------------------------------------------------------
      1        6          -0.000557931   -0.000249668   -0.000747902
      2        6           0.000395232    0.000528003   -0.000121068
      3        6          -0.000118724   -0.000004642    0.000359700
      4        9          -0.000178126   -0.000909137   -0.000201588
      5        9           0.001110116   -0.001695146    0.002681264
      6        9           0.003125456    0.001280396   -0.001033662
      7        9          -0.000509000   -0.000418150   -0.000022420
      8        9           0.000475997   -0.000436925   -0.000833010
      9        9          -0.000497091    0.000882433   -0.000343856
     10        9          -0.001164337   -0.000220969    0.000394526
     11        9          -0.002081592    0.001243805   -0.000131985
 -------------------------------------------------------------------
 Cartesian Forces:  Max     0.003125456 RMS     0.001049443

 GradGradGradGradGradGradGradGradGradGradGradGradGradGradGradGradGradGrad
 Berny optimization.
 Search for a local minimum.
 Step number   1 out of a maximum of    2
 All quantities printed in internal units (Hartrees-Bohrs-Radians)
 Second derivative matrix not updated -- first step.
 ITU=  0
     Eigenvalues ---    0.00150   0.00234   0.01353   0.03376   0.05293
     Eigenvalues ---    0.05337   0.05370   0.06813   0.08518   0.09212
     Eigenvalues ---    0.12471   0.14445   0.15118   0.15667   0.18233
     Eigenvalues ---    0.21417   0.24587   0.36568   0.64907   1.01456
     Eigenvalues ---    1.20457   1.30455   1.47735   1.61818   1.63252
     Eigenvalues ---    1.67761   1.72965
 Quadratic step=1.584D+00 exceeds max=3.000D-01 adjusted using Lamda=-6.503D-03.
 Angle between NR and scaled steps=   6.11 degrees.
 Angle between quadratic step and forces=  62.68 degrees.
 Linear search not attempted -- first point.
 B after Tr=    -0.000479    0.000310   -0.000543
         Rot=    1.000000    0.000010   -0.000094   -0.000054 Ang=   0.01 deg.
 Variable       Old X    -DE/DX   Delta X   Delta X   Delta X     New X
                                 (Linear)    (Quad)   (Total)
    X1       -5.12321  -0.00056   0.00000   0.01873   0.01815  -5.10506
    Y1        0.88854  -0.00025   0.00000   0.00924   0.00900   0.89754
    Z1       -0.02285  -0.00075   0.00000  -0.01032  -0.00992  -0.03277
    X2       -3.89955   0.00040   0.00000   0.01321   0.01289  -3.88666
    Y2        2.33769   0.00053   0.00000   0.00440   0.00433   2.34202
    Z2        2.18502  -0.00012   0.00000  -0.01069  -0.01054   2.17448
    X3       -1.60823  -0.00012   0.00000  -0.01502  -0.01497  -1.62320
    Y3        1.00347  -0.00000   0.00000  -0.01148  -0.01128   0.99219
    Z3        3.37320   0.00036   0.00000   0.01549   0.01524   3.38844
    X4        0.37593  -0.00018   0.00000  -0.01532  -0.01557   0.36036
    Y4        1.26551  -0.00091   0.00000  -0.10787  -0.10748   1.15803
    Z4        1.91492  -0.00020   0.00000  -0.00230  -0.00293   1.91199
    X5       -6.39364   0.00111   0.00000  -0.08829  -0.08930  -6.48294
    Y5        2.45589  -0.00170   0.00000  -0.00554  -0.00596   2.44993
    Z5       -1.46443   0.00268   0.00000   0.07649   0.07712  -1.38732
    X6       -6.67555   0.00313   0.00000   0.12172   0.12150  -6.55405
    Y6       -0.84166   0.00128   0.00000  -0.07590  -0.07628  -0.91795
    Z6        0.84268  -0.00103   0.00000  -0.00948  -0.00877   0.83391
    X7       -3.12428  -0.00051   0.00000   0.02469   0.02397  -3.10032
    Y7        4.56987  -0.00042   0.00000  -0.00003  -0.00003   4.56984
    Z7        1.35039  -0.00002   0.00000  -0.00895  -0.00899   1.34139
    X8       -5.63591   0.00048   0.00000   0.00068   0.00065  -5.63526
    Y8        2.69077  -0.00044   0.00000   0.01086   0.01063   2.70140
    Z8        3.95591  -0.00083   0.00000  -0.02629  -0.02582   3.93008
    X9       -1.11286  -0.00050   0.00000   0.01104   0.01138  -1.10148
    Y9        2.00586   0.00088   0.00000   0.05125   0.05154   2.05740
    Z9        5.58203  -0.00034   0.00000  -0.01897  -0.01934   5.56268
   X10       -2.07091  -0.00116   0.00000  -0.08100  -0.08062  -2.15153
   Y10       -1.41617  -0.00022   0.00000   0.01018   0.01033  -1.40584
   Z10        3.68014   0.00039   0.00000   0.09159   0.09148   3.77162
   X11       -3.36643  -0.00208   0.00000   0.01266   0.01191  -3.35452
   Y11       -0.21522   0.00124   0.00000   0.11528   0.11520  -0.10002
   Z11       -1.39447  -0.00013   0.00000  -0.09760  -0.09751  -1.49198
         Item               Value     Threshold  Converged?
 Maximum Force            0.003125     0.000450     NO 
 RMS     Force            0.001049     0.000300     NO 
 Maximum Displacement     0.121495     0.001800     NO 
 RMS     Displacement     0.052309     0.001200     NO 
 Predicted change in Energy=-7.093445D-04
 GradGradGradGradGradGradGradGradGradGradGradGradGradGradGradGradGradGrad

 1\1\GINC-MU01\Force\RHF\6-31G(d)\C3F8\LBL8\15-Sep-2025\0\\# hf/6-31G(d
 ) force\\Force calculation\\0,1\C,-2.71108524,0.47019566,-0.01209368\C
 ,-2.06355511,1.23705252,1.15626394\C,-0.8510407,0.53101502,1.78502219\
 F,0.19893307,0.66968056,1.01333073\F,-3.38336902,1.2995998,-0.774944\F
 ,-3.53254735,-0.44538828,0.44592674\F,-1.65329959,2.41826876,0.7145941
 2\F,-2.98239536,1.42389233,2.09337568\F,-0.58890097,1.06145369,2.95388
 069\F,-1.09587869,-0.74940491,1.94744665\F,-1.78143975,-0.11388698,-0.
 73792369\\Version=ES64L-G16RevA.03\State=1-A\HF=-909.1237091\RMSD=5.37
 9e-09\RMSF=1.049e-03\Dipole=-0.0021227,-0.0238138,-0.0076497\Quadrupol
 e=0.0472708,-0.1066665,0.0593956,-0.0222718,0.1580249,-0.007078\PG=C01
  [X(C3F8)]\\@


 "WHERE SHALL I START, PLEASE YOUR MAJESTY?" HE ASKED.
 "BEGIN AT THE BEGINNING," THE KING SAID GRAVELY,
 "AND GO ON TILL YOU COME TO THE END: THEN STOP." 

                                      -- LEWIS CARROLL
 Job cpu time:       0 days  0 hours  0 minutes  7.6 seconds.
 Elapsed time:       0 days  0 hours  0 minutes  7.7 seconds.
 File lengths (MBytes):  RWF=     28 Int=      0 D2E=      0 Chk=      4 Scr=      2
 Normal termination of Gaussian 16 at Mon Sep 15 21:53:05 2025.
