 Entering Gaussian System, Link 0=g16
 Input=gauss.gjf
 Output=gauss.log
 Initial command:
 /software/Applications/gaussian/G16.A03.AVX/g16/l1.exe "/home/lbl8/code/hartree-fock_geomopt-rev-3/example/Gau-3215036.inp" -scrdir="/home/lbl8/code/hartree-fock_geomopt-rev-3/example/"
 Entering Link 1 = /software/Applications/gaussian/G16.A03.AVX/g16/l1.exe PID=   3215038.
  
 Copyright (c) 1988,1990,1992,1993,1995,1998,2003,2009,2016,
            Gaussian, Inc.  All Rights Reserved.
  
 This is part of the Gaussian(R) 16 program.  It is based on
 the Gaussian(R) 09 system (copyright 2009, Gaussian, Inc.),
 the Gaussian(R) 03 system (copyright 2003, Gaussian, Inc.),
 the Gaussian(R) 98 system (copyright 1998, Gaussian, Inc.),
 the Gaussian(R) 94 system (copyright 1995, Gaussian, Inc.),
 the Gaussian 92(TM) system (copyright 1992, Gaussian, Inc.),
 the Gaussian 90(TM) system (copyright 1990, Gaussian, Inc.),
 the Gaussian 88(TM) system (copyright 1988, Gaussian, Inc.),
 the Gaussian 86(TM) system (copyright 1986, Carnegie Mellon
 University), and the Gaussian 82(TM) system (copyright 1983,
 Carnegie Mellon University). Gaussian is a federally registered
 trademark of Gaussian, Inc.
  
 This software contains proprietary and confidential information,
 including trade secrets, belonging to Gaussian, Inc.
  
 This software is provided under written license and may be
 used, copied, transmitted, or stored only in accord with that
 written license.
  
 The following legend is applicable only to US Government
 contracts under FAR:
  
                    RESTRICTED RIGHTS LEGEND
  
 Use, reproduction and disclosure by the US Government is
 subject to restrictions as set forth in subparagraphs (a)
 and (c) of the Commercial Computer Software - Restricted
 Rights clause in FAR 52.227-19.
  
 Gaussian, Inc.
 340 Quinnipiac St., Bldg. 40, Wallingford CT 06492
  
  
 ---------------------------------------------------------------
 Warning -- This program may not be used in any manner that
 competes with the business of Gaussian, Inc. or will provide
 assistance to any competitor of Gaussian, Inc.  The licensee
 of this program is prohibited from giving any competitor of
 Gaussian, Inc. access to this program.  By using this program,
 the user acknowledges that Gaussian, Inc. is engaged in the
 business of creating and licensing software in the field of
 computational chemistry and represents and warrants to the
 licensee that it is not a competitor of Gaussian, Inc. and that
 it will not use this program in any manner prohibited above.
 ---------------------------------------------------------------
  

 Cite this work as:
 Gaussian 16, Revision A.03,
 M. J. Frisch, G. W. Trucks, H. B. Schlegel, G. E. Scuseria, 
 M. A. Robb, J. R. Cheeseman, G. Scalmani, V. Barone, 
 G. A. Petersson, H. Nakatsuji, X. Li, M. Caricato, A. V. Marenich, 
 J. Bloino, B. G. Janesko, R. Gomperts, B. Mennucci, H. P. Hratchian, 
 J. V. Ortiz, A. F. Izmaylov, J. L. Sonnenberg, D. Williams-Young, 
 F. Ding, F. Lipparini, F. Egidi, J. Goings, B. Peng, A. Petrone, 
 T. Henderson, D. Ranasinghe, V. G. Zakrzewski, J. Gao, N. Rega, 
 G. Zheng, W. Liang, M. Hada, M. Ehara, K. Toyota, R. Fukuda, 
 J. Hasegawa, M. Ishida, T. Nakajima, Y. Honda, O. Kitao, H. Nakai, 
 T. Vreven, K. Throssell, J. A. Montgomery, Jr., J. E. Peralta, 
 F. Ogliaro, M. J. Bearpark, J. J. Heyd, E. N. Brothers, K. N. Kudin, 
 V. N. Staroverov, T. A. Keith, R. Kobayashi, J. Normand, 
 K. Raghavachari, A. P. Rendell, J. C. Burant, S. S. Iyengar, 
 J. Tomasi, M. Cossi, J. M. Millam, M. Klene, C. Adamo, R. Cammi, 
 J. W. Ochterski, R. L. Martin, K. Morokuma, O. Farkas, 
 J. B. Foresman, and D. J. Fox, Gaussian, Inc., Wallingford CT, 2016.
 
 ******************************************
 Gaussian 16:  ES64L-G16RevA.03 25-Dec-2016
                15-Sep-2025 
 ******************************************
 %chk=gauss.chk
 -------------------
 # hf/6-31G(d) force
 -------------------
 1/10=7,30=1,38=1/1,3;
 2/12=2,17=6,18=5,40=1/2;
 3/5=1,6=6,7=1,11=9,25=1,30=1,71=1/1,2,3;
 4//1;
 5/5=2,38=5/2;
 6/7=2,8=2,9=2,10=2,28=1/1;
 7/29=1/1,2,3,16;
 1/10=7,30=1/3;
 99//99;
 -----------------
 Force calculation
 -----------------
 Symbolic Z-matrix:
 Charge =  0 Multiplicity = 1
 C                    -2.83764   1.82534   0.00809 
 C                    -1.76552   2.36662   0.93309 
 C                    -1.00397   3.00329   3.89019 
 C                    -0.68655   1.82484   2.97874 
 H                    -2.60634   0.80729  -0.28269 
 H                    -2.91166   2.43366  -0.88808 
 H                    -3.80053   1.8247    0.50506 
 H                    -1.99581   3.39202   1.21162 
 H                    -0.8002    2.37673   0.42883 
 H                    -1.94775   2.83978   4.39813 
 H                    -0.22563   3.11534   4.63929 
 H                    -1.07018   3.93671   3.34234 
 H                     0.25334   1.99327   2.45508 
 H                    -0.5697    0.92799   3.57416 
 O                    -1.70443   1.54367   2.06126 
 

 GradGradGradGradGradGradGradGradGradGradGradGradGradGradGradGradGradGrad
 Berny optimization.
 Initialization pass.
 Trust Radius=3.00D-01 FncErr=1.00D-07 GrdErr=1.00D-07 EigMax=2.50D+02 EigMin=1.00D-04
 Number of steps in this run=      2 maximum allowed number of steps=      2.
 GradGradGradGradGradGradGradGradGradGradGradGradGradGradGradGradGradGrad

                          Input orientation:                          
 ---------------------------------------------------------------------
 Center     Atomic      Atomic             Coordinates (Angstroms)
 Number     Number       Type             X           Y           Z
 ---------------------------------------------------------------------
      1          6           0       -2.837641    1.825344    0.008088
      2          6           0       -1.765519    2.366621    0.933090
      3          6           0       -1.003969    3.003286    3.890189
      4          6           0       -0.686547    1.824845    2.978739
      5          1           0       -2.606335    0.807295   -0.282689
      6          1           0       -2.911660    2.433659   -0.888084
      7          1           0       -3.800525    1.824697    0.505064
      8          1           0       -1.995813    3.392021    1.211615
      9          1           0       -0.800197    2.376725    0.428828
     10          1           0       -1.947754    2.839780    4.398125
     11          1           0       -0.225634    3.115340    4.639289
     12          1           0       -1.070184    3.936710    3.342342
     13          1           0        0.253344    1.993269    2.455076
     14          1           0       -0.569700    0.927992    3.574159
     15          8           0       -1.704432    1.543673    2.061263
 ---------------------------------------------------------------------
                    Distance matrix (angstroms):
                    1          2          3          4          5
     1  C    0.000000
     2  C    1.515935   0.000000
     3  C    4.452035   3.119252   0.000000
     4  C    3.667694   2.375370   1.523227   0.000000
     5  H    1.083733   2.148625   4.980248   3.918917   0.000000
     6  H    1.085657   2.152861   5.176452   4.502678   1.762041
     7  H    1.083573   2.148986   4.546303   3.976925   1.755492
     8  H    2.147471   1.087224   2.882642   2.700545   3.047375
     9  H    2.152260   1.089141   3.523510   2.611424   2.496298
    10  H    4.592757   3.501937   1.084188   2.152996   5.145362
    11  H    5.471262   4.082615   1.086054   2.152962   5.934702
    12  H    4.324237   2.958574   1.084344   2.177006   5.029299
    13  H    3.945903   2.555708   2.158824   1.089029   4.132755
    14  H    4.320378   3.236493   2.143668   1.082831   4.363225
    15  O    2.361998   1.397766   2.442558   1.398896   2.617211
                    6          7          8          9         10
     6  H    0.000000
     7  H    1.761187   0.000000
     8  H    2.483137   2.492530   0.000000
     9  H    2.489132   3.051642   1.753020   0.000000
    10  H    5.388698   4.429343   3.234366   4.157719   0.000000
    11  H    6.183145   5.615820   3.867692   4.313196   1.760623
    12  H    4.852494   4.468277   2.386099   3.315872   1.757288
    13  H    4.624707   4.501647   2.925989   2.315744   3.055627
    14  H    5.259603   4.545509   3.699575   3.470601   2.496575
    15  O    3.308795   2.625707   2.055041   2.043639   2.683286
                   11         12         13         14         15
    11  H    0.000000
    12  H    1.752138   0.000000
    13  H    2.501850   2.513151   0.000000
    14  H    2.457108   3.058857   1.750589   0.000000
    15  O    3.362024   2.787482   2.046976   1.988852   0.000000
 Stoichiometry    C4H10O
 Framework group  C1[X(C4H10O)]
 Deg. of freedom    39
 Full point group                 C1      NOp   1
 Largest Abelian subgroup         C1      NOp   1
 Largest concise Abelian subgroup C1      NOp   1
                         Standard orientation:                         
 ---------------------------------------------------------------------
 Center     Atomic      Atomic             Coordinates (Angstroms)
 Number     Number       Type             X           Y           Z
 ---------------------------------------------------------------------
      1          6           0        2.331019    0.137503   -0.194769
      2          6           0        0.951088    0.268356    0.419009
      3          6           0       -2.097566    0.592192   -0.155951
      4          6           0       -1.238193   -0.620772    0.176343
      5          1           0        2.654905   -0.896566   -0.178113
      6          1           0        3.051662    0.735514    0.354510
      7          1           0        2.319515    0.471793   -1.225424
      8          1           0        0.636319    1.308989    0.411237
      9          1           0        0.966351   -0.057905    1.458023
     10          1           0       -2.099968    0.767172   -1.225922
     11          1           0       -3.120768    0.423770    0.166857
     12          1           0       -1.741569    1.491318    0.334598
     13          1           0       -1.221033   -0.789748    1.252046
     14          1           0       -1.664623   -1.503412   -0.283687
     15          8           0        0.067640   -0.526825   -0.316490
 ---------------------------------------------------------------------
 Rotational constants (GHZ):          14.1723928           2.4739154           2.3421587
 Standard basis: 6-31G(d) (6D, 7F)
 There are    95 symmetry adapted cartesian basis functions of A   symmetry.
 There are    95 symmetry adapted basis functions of A   symmetry.
    95 basis functions,   180 primitive gaussians,    95 cartesian basis functions
    21 alpha electrons       21 beta electrons
       nuclear repulsion energy       192.5842631928 Hartrees.
 NAtoms=   15 NActive=   15 NUniq=   15 SFac= 1.00D+00 NAtFMM=   60 NAOKFM=F Big=F
 Integral buffers will be    131072 words long.
 Raffenetti 1 integral format.
 Two-electron integral symmetry is turned on.
 One-electron integrals computed using PRISM.
 NBasis=    95 RedAO= T EigKep=  4.85D-03  NBF=    95
 NBsUse=    95 1.00D-06 EigRej= -1.00D+00 NBFU=    95
 ExpMin= 1.61D-01 ExpMax= 5.48D+03 ExpMxC= 8.25D+02 IAcc=3 IRadAn=         5 AccDes= 0.00D+00
 Harris functional with IExCor=  205 and IRadAn=       5 diagonalized for initial guess.
 HarFok:  IExCor=  205 AccDes= 0.00D+00 IRadAn=         5 IDoV= 1 UseB2=F ITyADJ=14
 ICtDFT=  3500011 ScaDFX=  1.000000  1.000000  1.000000  1.000000
 FoFCou: FMM=F IPFlag=           0 FMFlag=      100000 FMFlg1=           0
         NFxFlg=           0 DoJE=T BraDBF=F KetDBF=T FulRan=T
         wScrn=  0.000000 ICntrl=       500 IOpCl=  0 I1Cent=   200000004 NGrid=           0
         NMat0=    1 NMatS0=      1 NMatT0=    0 NMatD0=    1 NMtDS0=    0 NMtDT0=    0
 Petite list used in FoFCou.
 Keep R1 ints in memory in canonical form, NReq=11281927.
 Requested convergence on RMS density matrix=1.00D-08 within 128 cycles.
 Requested convergence on MAX density matrix=1.00D-06.
 Requested convergence on             energy=1.00D-06.
 No special actions if energy rises.
 SCF Done:  E(RHF) =  -232.142229244     A.U. after   12 cycles
            NFock= 12  Conv=0.35D-08     -V/T= 2.0009

 **********************************************************************

            Population analysis using the SCF density.

 **********************************************************************

 Orbital symmetries:
       Occupied  (A) (A) (A) (A) (A) (A) (A) (A) (A) (A) (A) (A)
                 (A) (A) (A) (A) (A) (A) (A) (A) (A)
       Virtual   (A) (A) (A) (A) (A) (A) (A) (A) (A) (A) (A) (A)
                 (A) (A) (A) (A) (A) (A) (A) (A) (A) (A) (A) (A)
                 (A) (A) (A) (A) (A) (A) (A) (A) (A) (A) (A) (A)
                 (A) (A) (A) (A) (A) (A) (A) (A) (A) (A) (A) (A)
                 (A) (A) (A) (A) (A) (A) (A) (A) (A) (A) (A) (A)
                 (A) (A) (A) (A) (A) (A) (A) (A) (A) (A) (A) (A)
                 (A) (A)
 The electronic state is 1-A.
 Alpha  occ. eigenvalues --  -20.54998 -11.26814 -11.26753 -11.21074 -11.20814
 Alpha  occ. eigenvalues --   -1.37481  -1.04087  -0.98629  -0.86264  -0.81255
 Alpha  occ. eigenvalues --   -0.67266  -0.64772  -0.64346  -0.57607  -0.54841
 Alpha  occ. eigenvalues --   -0.54447  -0.52396  -0.50272  -0.48698  -0.45643
 Alpha  occ. eigenvalues --   -0.40786
 Alpha virt. eigenvalues --    0.23512   0.26153   0.28129   0.29386   0.31546
 Alpha virt. eigenvalues --    0.32151   0.32826   0.33976   0.34486   0.36249
 Alpha virt. eigenvalues --    0.37861   0.42035   0.42750   0.46065   0.69714
 Alpha virt. eigenvalues --    0.73614   0.75467   0.76639   0.77419   0.79466
 Alpha virt. eigenvalues --    0.83794   0.87834   0.91458   0.94539   0.97312
 Alpha virt. eigenvalues --    1.06186   1.10822   1.13243   1.14135   1.16956
 Alpha virt. eigenvalues --    1.18123   1.19100   1.19852   1.21644   1.22812
 Alpha virt. eigenvalues --    1.25167   1.27132   1.32016   1.40493   1.43989
 Alpha virt. eigenvalues --    1.56456   1.63950   1.69956   1.74122   1.75295
 Alpha virt. eigenvalues --    1.86145   1.99522   2.02633   2.08466   2.18690
 Alpha virt. eigenvalues --    2.22841   2.26957   2.28439   2.32843   2.43637
 Alpha virt. eigenvalues --    2.44307   2.52423   2.55593   2.58498   2.65000
 Alpha virt. eigenvalues --    2.65808   2.69075   2.76651   2.79549   2.85801
 Alpha virt. eigenvalues --    3.00309   3.05173   3.20774   3.33980   4.37677
 Alpha virt. eigenvalues --    4.62042   4.62217   4.82205   4.88760
          Condensed to atoms (all electrons):
               1          2          3          4          5          6
     1  C    5.094224   0.366139  -0.000154   0.004644   0.389683   0.383173
     2  C    0.366139   4.770104  -0.004761  -0.045819  -0.035314  -0.037229
     3  C   -0.000154  -0.004761   5.163630   0.341623   0.000012   0.000008
     4  C    0.004644  -0.045819   0.341623   4.763690  -0.000081  -0.000121
     5  H    0.389683  -0.035314   0.000012  -0.000081   0.524109  -0.025394
     6  H    0.383173  -0.037229   0.000008  -0.000121  -0.025394   0.548415
     7  H    0.390776  -0.035206  -0.000007  -0.000190  -0.027672  -0.025677
     8  H   -0.044312   0.396635   0.002469  -0.000902   0.004852   0.000143
     9  H   -0.040458   0.397633  -0.000544  -0.008076  -0.005145  -0.000390
    10  H   -0.000046  -0.000101   0.388343  -0.035191   0.000001   0.000001
    11  H    0.000003   0.000078   0.378312  -0.033352  -0.000000  -0.000000
    12  H    0.000027   0.001013   0.390344  -0.032521  -0.000002   0.000000
    13  H   -0.000179  -0.009009  -0.055880   0.397890  -0.000012   0.000011
    14  H   -0.000106   0.005267  -0.048820   0.415439  -0.000017   0.000001
    15  O   -0.056282   0.209518  -0.051896   0.215607   0.002047   0.002971
               7          8          9         10         11         12
     1  C    0.390776  -0.044312  -0.040458  -0.000046   0.000003   0.000027
     2  C   -0.035206   0.396635   0.397633  -0.000101   0.000078   0.001013
     3  C   -0.000007   0.002469  -0.000544   0.388343   0.378312   0.390344
     4  C   -0.000190  -0.000902  -0.008076  -0.035191  -0.033352  -0.032521
     5  H   -0.027672   0.004852  -0.005145   0.000001  -0.000000  -0.000002
     6  H   -0.025677   0.000143  -0.000390   0.000001  -0.000000   0.000000
     7  H    0.523714  -0.005180   0.004738   0.000009   0.000000   0.000005
     8  H   -0.005180   0.606638  -0.052198   0.000058  -0.000184  -0.001114
     9  H    0.004738  -0.052198   0.603090   0.000068   0.000038   0.000083
    10  H    0.000009   0.000058   0.000068   0.523195  -0.024641  -0.028337
    11  H    0.000000  -0.000184   0.000038  -0.024641   0.547141  -0.027630
    12  H    0.000005  -0.001114   0.000083  -0.028337  -0.027630   0.537474
    13  H    0.000023  -0.000885   0.009033   0.004712   0.000940  -0.003852
    14  H    0.000006  -0.000328   0.000022  -0.003746  -0.000936   0.003904
    15  O    0.001448  -0.043543  -0.042887   0.001389   0.003015  -0.000546
              13         14         15
     1  C   -0.000179  -0.000106  -0.056282
     2  C   -0.009009   0.005267   0.209518
     3  C   -0.055880  -0.048820  -0.051896
     4  C    0.397890   0.415439   0.215607
     5  H   -0.000012  -0.000017   0.002047
     6  H    0.000011   0.000001   0.002971
     7  H    0.000023   0.000006   0.001448
     8  H   -0.000885  -0.000328  -0.043543
     9  H    0.009033   0.000022  -0.042887
    10  H    0.004712  -0.003746   0.001389
    11  H    0.000940  -0.000936   0.003015
    12  H   -0.003852   0.003904  -0.000546
    13  H    0.595124  -0.034339  -0.039782
    14  H   -0.034339   0.532602  -0.038610
    15  O   -0.039782  -0.038610   8.457753
 Mulliken charges:
               1
     1  C   -0.487131
     2  C    0.021053
     3  C   -0.502679
     4  C    0.017360
     5  H    0.172935
     6  H    0.154088
     7  H    0.173214
     8  H    0.137850
     9  H    0.134994
    10  H    0.174285
    11  H    0.157216
    12  H    0.161152
    13  H    0.136202
    14  H    0.169662
    15  O   -0.620201
 Sum of Mulliken charges =  -0.00000
 Mulliken charges with hydrogens summed into heavy atoms:
               1
     1  C    0.013106
     2  C    0.293898
     3  C   -0.010026
     4  C    0.323224
    15  O   -0.620201
 Electronic spatial extent (au):  <R**2>=            587.8235
 Charge=             -0.0000 electrons
 Dipole moment (field-independent basis, Debye):
    X=             -0.4100    Y=              0.6621    Z=              1.0762  Tot=              1.3284
 Quadrupole moment (field-independent basis, Debye-Ang):
   XX=            -31.0668   YY=            -33.5275   ZZ=            -33.4765
   XY=              1.2876   XZ=              0.3786   YZ=             -0.4695
 Traceless Quadrupole moment (field-independent basis, Debye-Ang):
   XX=              1.6234   YY=             -0.8372   ZZ=             -0.7862
   XY=              1.2876   XZ=              0.3786   YZ=             -0.4695
 Octapole moment (field-independent basis, Debye-Ang**2):
  XXX=             -1.2357  YYY=             -2.5341  ZZZ=             -1.4668  XYY=             -0.1595
  XXY=             -2.7464  XXZ=              0.0920  XZZ=              0.0393  YZZ=             -0.3131
  YYZ=             -0.0233  XYZ=             -0.1805
 Hexadecapole moment (field-independent basis, Debye-Ang**3):
 XXXX=           -615.9232 YYYY=           -107.2483 ZZZZ=            -74.8060 XXXY=              5.3580
 XXXZ=              0.3883 YYYX=              1.7839 YYYZ=              2.1863 ZZZX=              0.5071
 ZZZY=             -1.2192 XXYY=           -119.7425 XXZZ=           -115.1469 YYZZ=            -31.0744
 XXYZ=              1.4964 YYXZ=              0.8657 ZZXY=              1.1064
 N-N= 1.925842631928D+02 E-N=-9.282090873953D+02  KE= 2.319409456718D+02
 Calling FoFJK, ICntrl=      2127 FMM=F ISym2X=0 I1Cent= 0 IOpClX= 0 NMat=1 NMatS=1 NMatT=0.
 ***** Axes restored to original set *****
 -------------------------------------------------------------------
 Center     Atomic                   Forces (Hartrees/Bohr)
 Number     Number              X              Y              Z
 -------------------------------------------------------------------
      1        6          -0.000038681   -0.000020903   -0.000298240
      2        6           0.000126684   -0.000189966    0.000099411
      3        6           0.000279988    0.000028186   -0.000024046
      4        6          -0.000049321   -0.000070727   -0.000004804
      5        1           0.000171528   -0.000234640   -0.000099534
      6        1          -0.000019516    0.000106907   -0.000019196
      7        1          -0.000395243    0.000096321    0.000237618
      8        1          -0.000111490    0.000381767    0.000106570
      9        1           0.000344357    0.000015642   -0.000230428
     10        1          -0.000251829   -0.000025155    0.000183003
     11        1           0.000006607   -0.000013834    0.000123389
     12        1          -0.000098738    0.000232883   -0.000210908
     13        1           0.000158847    0.000033974   -0.000040786
     14        1           0.000061078   -0.000150489    0.000047204
     15        8          -0.000184271   -0.000189965    0.000130748
 -------------------------------------------------------------------
 Cartesian Forces:  Max     0.000395243 RMS     0.000168349

 GradGradGradGradGradGradGradGradGradGradGradGradGradGradGradGradGradGrad
 Berny optimization.
 Search for a local minimum.
 Step number   1 out of a maximum of    2
 All quantities printed in internal units (Hartrees-Bohrs-Radians)
 Second derivative matrix not updated -- first step.
 ITU=  0
     Eigenvalues ---    0.00157   0.00282   0.00344   0.00672   0.01176
     Eigenvalues ---    0.01899   0.03530   0.04261   0.04733   0.05175
     Eigenvalues ---    0.05256   0.06043   0.07474   0.07639   0.09179
     Eigenvalues ---    0.09779   0.12321   0.13273   0.13542   0.13823
     Eigenvalues ---    0.14417   0.15375   0.16380   0.20123   0.22223
     Eigenvalues ---    0.29888   0.32190   0.53297   0.58468   0.77915
     Eigenvalues ---    0.79205   0.85614   0.88831   0.96483   1.00364
     Eigenvalues ---    1.02924   1.04169   1.14526   1.32950
 Angle between quadratic step and forces=  78.39 degrees.
 Linear search not attempted -- first point.
 B after Tr=     0.000585   -0.000550    0.000081
         Rot=    1.000000    0.000002    0.000013   -0.000013 Ang=   0.00 deg.
 Variable       Old X    -DE/DX   Delta X   Delta X   Delta X     New X
                                 (Linear)    (Quad)   (Total)
    X1       -5.36237  -0.00004   0.00000  -0.00169  -0.00119  -5.36356
    Y1        3.44940  -0.00002   0.00000   0.00286   0.00218   3.45157
    Z1        0.01528  -0.00030   0.00000   0.00149   0.00142   0.01671
    X2       -3.33635   0.00013   0.00000   0.00371   0.00414  -3.33221
    Y2        4.47227  -0.00019   0.00000  -0.00291  -0.00354   4.46873
    Z2        1.76328   0.00010   0.00000   0.00035   0.00033   1.76361
    X3       -1.89723   0.00028   0.00000  -0.00314  -0.00289  -1.90011
    Y3        5.67539   0.00003   0.00000   0.00133   0.00076   5.67615
    Z3        7.35139  -0.00002   0.00000  -0.00312  -0.00310   7.34829
    X4       -1.29739  -0.00005   0.00000   0.00131   0.00167  -1.29571
    Y4        3.44846  -0.00007   0.00000  -0.00190  -0.00247   3.44599
    Z4        5.62900  -0.00000   0.00000   0.00135   0.00139   5.63039
    X5       -4.92526   0.00017   0.00000  -0.00241  -0.00185  -4.92711
    Y5        1.52557  -0.00023   0.00000   0.00413   0.00346   1.52902
    Z5       -0.53420  -0.00010   0.00000  -0.00652  -0.00657  -0.54077
    X6       -5.50224  -0.00002   0.00000  -0.00542  -0.00491  -5.50715
    Y6        4.59895   0.00011   0.00000   0.00955   0.00886   4.60781
    Z6       -1.67824  -0.00002   0.00000   0.00607   0.00600  -1.67223
    X7       -7.18195  -0.00040   0.00000  -0.00033   0.00014  -7.18181
    Y7        3.44818   0.00010   0.00000   0.00149   0.00076   3.44893
    Z7        0.95443   0.00024   0.00000   0.00693   0.00682   0.96125
    X8       -3.77154  -0.00011   0.00000   0.00622   0.00658  -3.76496
    Y8        6.40999   0.00038   0.00000  -0.00192  -0.00255   6.40744
    Z8        2.28962   0.00011   0.00000   0.00333   0.00329   2.29291
    X9       -1.51215   0.00034   0.00000   0.00340   0.00385  -1.50830
    Y9        4.49136   0.00002   0.00000  -0.00386  -0.00445   4.48691
    Z9        0.81037  -0.00023   0.00000  -0.00282  -0.00279   0.80758
   X10       -3.68072  -0.00025   0.00000  -0.00326  -0.00302  -3.68374
   Y10        5.36641  -0.00003   0.00000  -0.00014  -0.00076   5.36565
   Z10        8.31125   0.00018   0.00000  -0.00194  -0.00197   8.30928
   X11       -0.42639   0.00001   0.00000  -0.00422  -0.00400  -0.43039
   Y11        5.88714  -0.00001   0.00000   0.00781   0.00728   5.89442
   Z11        8.76699   0.00012   0.00000  -0.00260  -0.00255   8.76443
   X12       -2.02236  -0.00010   0.00000  -0.00781  -0.00758  -2.02993
   Y12        7.43930   0.00023   0.00000  -0.00104  -0.00162   7.43768
   Z12        6.31611  -0.00021   0.00000  -0.00834  -0.00833   6.30778
   X13        0.47875   0.00016   0.00000   0.00235   0.00273   0.48148
   Y13        3.76673   0.00003   0.00000  -0.00080  -0.00132   3.76541
   Z13        4.63942  -0.00004   0.00000   0.00261   0.00269   4.64211
   X14       -1.07658   0.00006   0.00000   0.00256   0.00293  -1.07364
   Y14        1.75365  -0.00015   0.00000  -0.00087  -0.00142   1.75223
   Z14        6.75418   0.00005   0.00000   0.00347   0.00352   6.75770
   X15       -3.22091  -0.00018   0.00000   0.00298   0.00339  -3.21752
   Y15        2.91712  -0.00019   0.00000  -0.00455  -0.00516   2.91195
   Z15        3.89522   0.00013   0.00000  -0.00013  -0.00014   3.89509
         Item               Value     Threshold  Converged?
 Maximum Force            0.000395     0.000450     YES
 RMS     Force            0.000168     0.000300     YES
 Maximum Displacement     0.008859     0.001800     NO 
 RMS     Displacement     0.003974     0.001200     NO 
 Predicted change in Energy=-3.045602D-06
 GradGradGradGradGradGradGradGradGradGradGradGradGradGradGradGradGradGrad

 1\1\GINC-MU01\Force\RHF\6-31G(d)\C4H10O1\LBL8\15-Sep-2025\0\\# hf/6-31
 G(d) force\\Force calculation\\0,1\C,-2.83764145,1.82534351,0.00808751
 \C,-1.76551869,2.36662137,0.93308984\C,-1.00396877,3.00328589,3.890189
 12\C,-0.68654677,1.82484497,2.97873938\H,-2.60633537,0.80729451,-0.282
 68903\H,-2.91165992,2.43365906,-0.88808435\H,-3.8005251,1.82469662,0.5
 0506412\H,-1.99581329,3.39202068,1.21161536\H,-0.80019675,2.37672536,0
 .42882776\H,-1.94775385,2.83977958,4.39812538\H,-0.22563356,3.11534017
 ,4.63928945\H,-1.07018429,3.93670951,3.34234175\H,0.25334438,1.9932686
 6,2.45507634\H,-0.56969978,0.92799159,3.57415916\O,-1.70443157,1.54367
 271,2.06126303\\Version=ES64L-G16RevA.03\State=1-A\HF=-232.1422292\RMS
 D=3.517e-09\RMSF=1.683e-04\Dipole=0.3302139,0.4008236,-0.0588165\Quadr
 upole=0.0530601,-1.0968866,1.0438265,-0.5062531,0.7911126,-0.4248709\P
 G=C01 [X(C4H10O1)]\\@


 I think that all right-thinking people in this
 country are sick and tired of being told that
 ordinary, decent people are fed up in this country
 with being sick and tired.  I'm certainly not!
 But I'm sick and tired of being told that I am!
                               -- Monty Python
 Job cpu time:       0 days  0 hours  0 minutes  2.3 seconds.
 Elapsed time:       0 days  0 hours  0 minutes  2.4 seconds.
 File lengths (MBytes):  RWF=     22 Int=      0 D2E=      0 Chk=      3 Scr=      2
 Normal termination of Gaussian 16 at Mon Sep 15 21:33:22 2025.
