 Entering Gaussian System, Link 0=g16
 Input=gauss.gjf
 Output=gauss.log
 Initial command:
 /software/Applications/gaussian/G16.A03.AVX/g16/l1.exe "/home/lbl8/code/hartree-fock_geomopt-rev-3/example/Gau-3228862.inp" -scrdir="/home/lbl8/code/hartree-fock_geomopt-rev-3/example/"
 Entering Link 1 = /software/Applications/gaussian/G16.A03.AVX/g16/l1.exe PID=   3228864.
  
 Copyright (c) 1988,1990,1992,1993,1995,1998,2003,2009,2016,
            Gaussian, Inc.  All Rights Reserved.
  
 This is part of the Gaussian(R) 16 program.  It is based on
 the Gaussian(R) 09 system (copyright 2009, Gaussian, Inc.),
 the Gaussian(R) 03 system (copyright 2003, Gaussian, Inc.),
 the Gaussian(R) 98 system (copyright 1998, Gaussian, Inc.),
 the Gaussian(R) 94 system (copyright 1995, Gaussian, Inc.),
 the Gaussian 92(TM) system (copyright 1992, Gaussian, Inc.),
 the Gaussian 90(TM) system (copyright 1990, Gaussian, Inc.),
 the Gaussian 88(TM) system (copyright 1988, Gaussian, Inc.),
 the Gaussian 86(TM) system (copyright 1986, Carnegie Mellon
 University), and the Gaussian 82(TM) system (copyright 1983,
 Carnegie Mellon University). Gaussian is a federally registered
 trademark of Gaussian, Inc.
  
 This software contains proprietary and confidential information,
 including trade secrets, belonging to Gaussian, Inc.
  
 This software is provided under written license and may be
 used, copied, transmitted, or stored only in accord with that
 written license.
  
 The following legend is applicable only to US Government
 contracts under FAR:
  
                    RESTRICTED RIGHTS LEGEND
  
 Use, reproduction and disclosure by the US Government is
 subject to restrictions as set forth in subparagraphs (a)
 and (c) of the Commercial Computer Software - Restricted
 Rights clause in FAR 52.227-19.
  
 Gaussian, Inc.
 340 Quinnipiac St., Bldg. 40, Wallingford CT 06492
  
  
 ---------------------------------------------------------------
 Warning -- This program may not be used in any manner that
 competes with the business of Gaussian, Inc. or will provide
 assistance to any competitor of Gaussian, Inc.  The licensee
 of this program is prohibited from giving any competitor of
 Gaussian, Inc. access to this program.  By using this program,
 the user acknowledges that Gaussian, Inc. is engaged in the
 business of creating and licensing software in the field of
 computational chemistry and represents and warrants to the
 licensee that it is not a competitor of Gaussian, Inc. and that
 it will not use this program in any manner prohibited above.
 ---------------------------------------------------------------
  

 Cite this work as:
 Gaussian 16, Revision A.03,
 M. J. Frisch, G. W. Trucks, H. B. Schlegel, G. E. Scuseria, 
 M. A. Robb, J. R. Cheeseman, G. Scalmani, V. Barone, 
 G. A. Petersson, H. Nakatsuji, X. Li, M. Caricato, A. V. Marenich, 
 J. Bloino, B. G. Janesko, R. Gomperts, B. Mennucci, H. P. Hratchian, 
 J. V. Ortiz, A. F. Izmaylov, J. L. Sonnenberg, D. Williams-Young, 
 F. Ding, F. Lipparini, F. Egidi, J. Goings, B. Peng, A. Petrone, 
 T. Henderson, D. Ranasinghe, V. G. Zakrzewski, J. Gao, N. Rega, 
 G. Zheng, W. Liang, M. Hada, M. Ehara, K. Toyota, R. Fukuda, 
 J. Hasegawa, M. Ishida, T. Nakajima, Y. Honda, O. Kitao, H. Nakai, 
 T. Vreven, K. Throssell, J. A. Montgomery, Jr., J. E. Peralta, 
 F. Ogliaro, M. J. Bearpark, J. J. Heyd, E. N. Brothers, K. N. Kudin, 
 V. N. Staroverov, T. A. Keith, R. Kobayashi, J. Normand, 
 K. Raghavachari, A. P. Rendell, J. C. Burant, S. S. Iyengar, 
 J. Tomasi, M. Cossi, J. M. Millam, M. Klene, C. Adamo, R. Cammi, 
 J. W. Ochterski, R. L. Martin, K. Morokuma, O. Farkas, 
 J. B. Foresman, and D. J. Fox, Gaussian, Inc., Wallingford CT, 2016.
 
 ******************************************
 Gaussian 16:  ES64L-G16RevA.03 25-Dec-2016
                15-Sep-2025 
 ******************************************
 %chk=gauss.chk
 -------------------
 # hf/6-31G(d) force
 -------------------
 1/10=7,30=1,38=1/1,3;
 2/12=2,17=6,18=5,40=1/2;
 3/5=1,6=6,7=1,11=9,25=1,30=1,71=1/1,2,3;
 4//1;
 5/5=2,38=5/2;
 6/7=2,8=2,9=2,10=2,28=1/1;
 7/29=1/1,2,3,16;
 1/10=7,30=1/3;
 99//99;
 -----------------
 Force calculation
 -----------------
 Symbolic Z-matrix:
 Charge =  0 Multiplicity = 1
 C                    -2.71437   0.47074  -0.02566 
 C                    -2.10001   1.19509   1.20226 
 C                    -0.81959   0.55853   1.75564 
 F                     0.16386   0.70758   0.90207 
 F                    -3.1297    1.35102  -0.90862 
 F                    -3.7368   -0.27189   0.34732 
 F                    -1.79603   2.44132   0.8618 
 F                    -3.00215   1.22633   2.17571 
 F                    -0.4949    1.15541   2.87998 
 F                    -0.99847  -0.72042   1.99302 
 F                    -1.81641  -0.31124  -0.59863 
 

 GradGradGradGradGradGradGradGradGradGradGradGradGradGradGradGradGradGrad
 Berny optimization.
 Initialization pass.
 Trust Radius=3.00D-01 FncErr=1.00D-07 GrdErr=1.00D-07 EigMax=2.50D+02 EigMin=1.00D-04
 Number of steps in this run=      2 maximum allowed number of steps=      2.
 GradGradGradGradGradGradGradGradGradGradGradGradGradGradGradGradGradGrad

                          Input orientation:                          
 ---------------------------------------------------------------------
 Center     Atomic      Atomic             Coordinates (Angstroms)
 Number     Number       Type             X           Y           Z
 ---------------------------------------------------------------------
      1          6           0       -2.714366    0.470744   -0.025665
      2          6           0       -2.100014    1.195095    1.202261
      3          6           0       -0.819590    0.558527    1.755644
      4          9           0        0.163859    0.707576    0.902068
      5          9           0       -3.129703    1.351022   -0.908618
      6          9           0       -3.736805   -0.271889    0.347319
      7          9           0       -1.796029    2.441323    0.861798
      8          9           0       -3.002148    1.226335    2.175708
      9          9           0       -0.494899    1.155410    2.879980
     10          9           0       -0.998475   -0.720421    1.993017
     11          9           0       -1.816407   -0.311243   -0.598633
 ---------------------------------------------------------------------
                    Distance matrix (angstroms):
                    1          2          3          4          5
     1  C    0.000000
     2  C    1.552390   0.000000
     3  C    2.602104   1.533277   0.000000
     4  F    3.033308   2.335147   1.310716   0.000000
     5  F    1.314154   2.353802   3.614272   3.813156   0.000000
     6  F    1.317574   2.358400   3.344116   4.059836   2.140045
     7  F    2.348215   1.327180   2.301589   2.616994   2.470185
     8  F    2.345160   1.327561   2.320771   3.451791   3.089479
     9  F    3.719889   2.322220   1.313706   2.132288   4.618867
    10  F    2.904864   2.346889   1.313033   2.140178   4.153612
    11  F    1.321412   2.364891   2.700512   2.685433   2.141020
                    6          7          8          9         10
     6  F    0.000000
     7  F    3.375325   0.000000
     8  F    2.475358   2.158072   0.000000
     9  F    4.354481   2.723888   2.605249   0.000000
    10  F    3.226136   3.451431   2.799632   2.135190   0.000000
    11  F    2.141099   3.116071   3.386310   3.999775   2.748288
                   11
    11  F    0.000000
 Stoichiometry    C3F8
 Framework group  C1[X(C3F8)]
 Deg. of freedom    27
 Full point group                 C1      NOp   1
 Largest Abelian subgroup         C1      NOp   1
 Largest concise Abelian subgroup C1      NOp   1
                         Standard orientation:                         
 ---------------------------------------------------------------------
 Center     Atomic      Atomic             Coordinates (Angstroms)
 Number     Number       Type             X           Y           Z
 ---------------------------------------------------------------------
      1          6           0       -1.310436   -0.216376   -0.001593
      2          6           0        0.011746    0.597087    0.003819
      3          6           0        1.291478   -0.247438    0.003286
      4          9           0        1.423066   -0.866708   -1.144393
      5          9           0       -2.179521    0.338980   -0.816007
      6          9           0       -1.827432   -0.254559    1.209712
      7          9           0        0.053240    1.362209   -1.079820
      8          9           0        0.029575    1.376881    1.078073
      9          9           0        2.326904    0.542359    0.176311
     10          9           0        1.268194   -1.131677    0.973664
     11          9           0       -1.089219   -1.456334   -0.401215
 ---------------------------------------------------------------------
 Rotational constants (GHZ):           1.7075278           0.9717890           0.9129490
 Standard basis: 6-31G(d) (6D, 7F)
 There are   165 symmetry adapted cartesian basis functions of A   symmetry.
 There are   165 symmetry adapted basis functions of A   symmetry.
   165 basis functions,   308 primitive gaussians,   165 cartesian basis functions
    45 alpha electrons       45 beta electrons
       nuclear repulsion energy       804.8675393606 Hartrees.
 NAtoms=   11 NActive=   11 NUniq=   11 SFac= 1.00D+00 NAtFMM=   60 NAOKFM=F Big=F
 Integral buffers will be    131072 words long.
 Raffenetti 1 integral format.
 Two-electron integral symmetry is turned on.
 One-electron integrals computed using PRISM.
 NBasis=   165 RedAO= T EigKep=  9.47D-04  NBF=   165
 NBsUse=   165 1.00D-06 EigRej= -1.00D+00 NBFU=   165
 ExpMin= 1.69D-01 ExpMax= 7.00D+03 ExpMxC= 1.05D+03 IAcc=3 IRadAn=         5 AccDes= 0.00D+00
 Harris functional with IExCor=  205 and IRadAn=       5 diagonalized for initial guess.
 HarFok:  IExCor=  205 AccDes= 0.00D+00 IRadAn=         5 IDoV= 1 UseB2=F ITyADJ=14
 ICtDFT=  3500011 ScaDFX=  1.000000  1.000000  1.000000  1.000000
 FoFCou: FMM=F IPFlag=           0 FMFlag=      100000 FMFlg1=           0
         NFxFlg=           0 DoJE=T BraDBF=F KetDBF=T FulRan=T
         wScrn=  0.000000 ICntrl=       500 IOpCl=  0 I1Cent=   200000004 NGrid=           0
         NMat0=    1 NMatS0=      1 NMatT0=    0 NMatD0=    1 NMtDS0=    0 NMtDT0=    0
 Petite list used in FoFCou.
 Keep R1 ints in memory in canonical form, NReq=96071382.
 Requested convergence on RMS density matrix=1.00D-08 within 128 cycles.
 Requested convergence on MAX density matrix=1.00D-06.
 Requested convergence on             energy=1.00D-06.
 No special actions if energy rises.
 SCF Done:  E(RHF) =  -909.121103558     A.U. after   11 cycles
            NFock= 11  Conv=0.56D-08     -V/T= 2.0020

 **********************************************************************

            Population analysis using the SCF density.

 **********************************************************************

 Orbital symmetries:
       Occupied  (A) (A) (A) (A) (A) (A) (A) (A) (A) (A) (A) (A)
                 (A) (A) (A) (A) (A) (A) (A) (A) (A) (A) (A) (A)
                 (A) (A) (A) (A) (A) (A) (A) (A) (A) (A) (A) (A)
                 (A) (A) (A) (A) (A) (A) (A) (A) (A)
       Virtual   (A) (A) (A) (A) (A) (A) (A) (A) (A) (A) (A) (A)
                 (A) (A) (A) (A) (A) (A) (A) (A) (A) (A) (A) (A)
                 (A) (A) (A) (A) (A) (A) (A) (A) (A) (A) (A) (A)
                 (A) (A) (A) (A) (A) (A) (A) (A) (A) (A) (A) (A)
                 (A) (A) (A) (A) (A) (A) (A) (A) (A) (A) (A) (A)
                 (A) (A) (A) (A) (A) (A) (A) (A) (A) (A) (A) (A)
                 (A) (A) (A) (A) (A) (A) (A) (A) (A) (A) (A) (A)
                 (A) (A) (A) (A) (A) (A) (A) (A) (A) (A) (A) (A)
                 (A) (A) (A) (A) (A) (A) (A) (A) (A) (A) (A) (A)
                 (A) (A) (A) (A) (A) (A) (A) (A) (A) (A) (A) (A)
 The electronic state is 1-A.
 Alpha  occ. eigenvalues --  -26.37996 -26.37973 -26.37794 -26.37743 -26.37666
 Alpha  occ. eigenvalues --  -26.37547 -26.37410 -26.37401 -11.55135 -11.54676
 Alpha  occ. eigenvalues --  -11.48235  -1.78703  -1.77573  -1.73114  -1.68227
 Alpha  occ. eigenvalues --   -1.67659  -1.67571  -1.67263  -1.66027  -1.12256
 Alpha  occ. eigenvalues --   -1.02538  -0.95477  -0.90805  -0.88781  -0.87526
 Alpha  occ. eigenvalues --   -0.86424  -0.85567  -0.85259  -0.81299  -0.76234
 Alpha  occ. eigenvalues --   -0.75311  -0.74646  -0.73997  -0.73783  -0.72845
 Alpha  occ. eigenvalues --   -0.71492  -0.70180  -0.70110  -0.68380  -0.68234
 Alpha  occ. eigenvalues --   -0.68020  -0.67407  -0.67126  -0.63287  -0.56174
 Alpha virt. eigenvalues --    0.24202   0.24973   0.35704   0.39207   0.41962
 Alpha virt. eigenvalues --    0.44023   0.46360   0.50563   0.51558   0.55750
 Alpha virt. eigenvalues --    0.64302   0.64894   0.68394   0.68979   0.71293
 Alpha virt. eigenvalues --    0.76482   0.77290   0.85732   0.87260   0.90329
 Alpha virt. eigenvalues --    1.04536   1.13555   1.21304   1.23866   1.25150
 Alpha virt. eigenvalues --    1.31383   1.33154   1.34575   1.34596   1.36463
 Alpha virt. eigenvalues --    1.40269   1.47336   1.51882   1.52447   1.53948
 Alpha virt. eigenvalues --    1.56435   1.57331   1.58962   1.60533   1.61349
 Alpha virt. eigenvalues --    1.62665   1.63431   1.64218   1.65222   1.65980
 Alpha virt. eigenvalues --    1.66568   1.69605   1.69691   1.73625   1.77881
 Alpha virt. eigenvalues --    1.79700   1.81311   1.84246   1.88767   1.91911
 Alpha virt. eigenvalues --    1.96027   1.97468   1.98427   2.03292   2.05154
 Alpha virt. eigenvalues --    2.05647   2.07124   2.07619   2.09637   2.10426
 Alpha virt. eigenvalues --    2.12714   2.15147   2.18488   2.21711   2.26597
 Alpha virt. eigenvalues --    2.28407   2.29507   2.30422   2.31942   2.32206
 Alpha virt. eigenvalues --    2.37083   2.37549   2.38108   2.39795   2.41430
 Alpha virt. eigenvalues --    2.43760   2.45301   2.45959   2.50650   2.54056
 Alpha virt. eigenvalues --    2.57090   2.64716   2.68467   2.75362   2.78142
 Alpha virt. eigenvalues --    2.84303   2.87827   2.95802   2.96473   3.02918
 Alpha virt. eigenvalues --    3.08744   3.13932   3.17214   3.25371   3.28503
 Alpha virt. eigenvalues --    3.30440   3.37487   3.39516   3.40628   3.43045
 Alpha virt. eigenvalues --    3.44253   3.48475   3.49380   3.52868   4.48281
 Alpha virt. eigenvalues --    4.52500   4.71286   4.80907   5.09669   5.27372
 Alpha virt. eigenvalues --    5.45464   5.55602   6.01362   6.19366   6.95379
          Condensed to atoms (all electrons):
               1          2          3          4          5          6
     1  C    3.766587   0.362930  -0.067587   0.003607   0.289102   0.288571
     2  C    0.362930   4.439359   0.380740  -0.037028  -0.025110  -0.031986
     3  C   -0.067587   0.380740   3.761968   0.278922   0.001241   0.000864
     4  F    0.003607  -0.037028   0.278922   9.160862  -0.000016   0.000002
     5  F    0.289102  -0.025110   0.001241  -0.000016   9.142217  -0.034213
     6  F    0.288571  -0.031986   0.000864   0.000002  -0.034213   9.149029
     7  F   -0.016691   0.214096  -0.020154   0.001169  -0.000635   0.000314
     8  F   -0.017828   0.217752  -0.018871   0.000351   0.000139  -0.000121
     9  F    0.001458  -0.026010   0.295152  -0.034379  -0.000001  -0.000002
    10  F    0.010954  -0.041024   0.279090  -0.031908   0.000001  -0.000169
    11  F    0.281632  -0.036798   0.012248  -0.000675  -0.033831  -0.034100
               7          8          9         10         11
     1  C   -0.016691  -0.017828   0.001458   0.010954   0.281632
     2  C    0.214096   0.217752  -0.026010  -0.041024  -0.036798
     3  C   -0.020154  -0.018871   0.295152   0.279090   0.012248
     4  F    0.001169   0.000351  -0.034379  -0.031908  -0.000675
     5  F   -0.000635   0.000139  -0.000001   0.000001  -0.033831
     6  F    0.000314  -0.000121  -0.000002  -0.000169  -0.034100
     7  F    9.211804  -0.029096   0.000455   0.000370   0.000285
     8  F   -0.029096   9.207112   0.000568   0.000763   0.000344
     9  F    0.000455   0.000568   9.141377  -0.034013   0.000000
    10  F    0.000370   0.000763  -0.034013   9.160651  -0.001450
    11  F    0.000285   0.000344   0.000000  -0.001450   9.160187
 Mulliken charges:
               1
     1  C    1.097264
     2  C    0.583080
     3  C    1.096386
     4  F   -0.340905
     5  F   -0.338895
     6  F   -0.338189
     7  F   -0.361917
     8  F   -0.361114
     9  F   -0.344605
    10  F   -0.343264
    11  F   -0.347844
 Sum of Mulliken charges =  -0.00000
 Mulliken charges with hydrogens summed into heavy atoms:
               1
     1  C    1.097264
     2  C    0.583080
     3  C    1.096386
     4  F   -0.340905
     5  F   -0.338895
     6  F   -0.338189
     7  F   -0.361917
     8  F   -0.361114
     9  F   -0.344605
    10  F   -0.343264
    11  F   -0.347844
 Electronic spatial extent (au):  <R**2>=           1290.4023
 Charge=             -0.0000 electrons
 Dipole moment (field-independent basis, Debye):
    X=             -0.0623    Y=             -0.0782    Z=             -0.0026  Tot=              0.1000
 Quadrupole moment (field-independent basis, Debye-Ang):
   XX=            -57.0135   YY=            -57.3084   ZZ=            -57.3059
   XY=             -0.1891   XZ=              0.0516   YZ=              0.0114
 Traceless Quadrupole moment (field-independent basis, Debye-Ang):
   XX=              0.1958   YY=             -0.0991   ZZ=             -0.0966
   XY=             -0.1891   XZ=              0.0516   YZ=              0.0114
 Octapole moment (field-independent basis, Debye-Ang**2):
  XXX=             -0.0532  YYY=             -0.5423  ZZZ=             -0.5301  XYY=             -0.6122
  XXY=             -1.5414  XXZ=              0.0194  XZZ=              0.8223  YZZ=             -0.9686
  YYZ=              0.2874  XYZ=             -0.5783
 Hexadecapole moment (field-independent basis, Debye-Ang**3):
 XXXX=           -675.1222 YYYY=           -288.2958 ZZZZ=           -228.0302 XXXY=             -1.4759
 XXXZ=             -1.4375 YYYX=             -0.9987 YYYZ=             -0.2860 ZZZX=              1.8735
 ZZZY=              0.1195 XXYY=           -157.8934 XXZZ=           -153.6597 YYZZ=            -88.4743
 XXYZ=              0.5827 YYXZ=             -1.0580 ZZXY=              1.6437
 N-N= 8.048675393606D+02 E-N=-3.776128138815D+03  KE= 9.073282470789D+02
 Calling FoFJK, ICntrl=      2127 FMM=F ISym2X=0 I1Cent= 0 IOpClX= 0 NMat=1 NMatS=1 NMatT=0.
 ***** Axes restored to original set *****
 -------------------------------------------------------------------
 Center     Atomic                   Forces (Hartrees/Bohr)
 Number     Number              X              Y              Z
 -------------------------------------------------------------------
      1        6          -0.002898195   -0.003946919   -0.002588585
      2        6          -0.001263393    0.002301743    0.001074795
      3        6           0.001374836    0.000290135    0.002993173
      4        9          -0.000069914   -0.000623411    0.000137206
      5        9           0.001398025   -0.005067177    0.004659296
      6        9           0.008079269    0.004209693   -0.002698428
      7        9          -0.000691339   -0.002079097    0.000038911
      8        9           0.002198675    0.000026023   -0.002614755
      9        9          -0.001283708   -0.000990910   -0.002496092
     10        9          -0.001136270    0.000639475   -0.000067825
     11        9          -0.005707986    0.005240444    0.001562304
 -------------------------------------------------------------------
 Cartesian Forces:  Max     0.008079269 RMS     0.002908785

 GradGradGradGradGradGradGradGradGradGradGradGradGradGradGradGradGradGrad
 Berny optimization.
 Search for a local minimum.
 Step number   1 out of a maximum of    2
 All quantities printed in internal units (Hartrees-Bohrs-Radians)
 Second derivative matrix not updated -- first step.
 ITU=  0
     Eigenvalues ---    0.00155   0.00268   0.01355   0.03363   0.05285
     Eigenvalues ---    0.05309   0.05350   0.06802   0.08506   0.09184
     Eigenvalues ---    0.12408   0.14370   0.15084   0.15591   0.18180
     Eigenvalues ---    0.21356   0.24459   0.36149   0.64488   1.00842
     Eigenvalues ---    1.19732   1.29323   1.46579   1.59060   1.62185
     Eigenvalues ---    1.66048   1.72137
 Quadratic step=1.450D+00 exceeds max=3.000D-01 adjusted using Lamda=-6.183D-03.
 Angle between NR and scaled steps=   7.81 degrees.
 Angle between quadratic step and forces=  77.26 degrees.
 Linear search not attempted -- first point.
 B after Tr=    -0.000301    0.000426   -0.000492
         Rot=    1.000000   -0.000012   -0.000067   -0.000073 Ang=  -0.01 deg.
 Variable       Old X    -DE/DX   Delta X   Delta X   Delta X     New X
                                 (Linear)    (Quad)   (Total)
    X1       -5.12941  -0.00290   0.00000   0.01035   0.00991  -5.11950
    Y1        0.88958  -0.00395   0.00000   0.00694   0.00662   0.89620
    Z1       -0.04850  -0.00259   0.00000  -0.00178  -0.00157  -0.05007
    X2       -3.96845  -0.00126   0.00000   0.01731   0.01698  -3.95147
    Y2        2.25840   0.00230   0.00000   0.01484   0.01463   2.27303
    Z2        2.27194   0.00107   0.00000  -0.01549  -0.01540   2.25655
    X3       -1.54880   0.00137   0.00000  -0.01237  -0.01238  -1.56118
    Y3        1.05546   0.00029   0.00000  -0.01382  -0.01371   1.04176
    Z3        3.31769   0.00299   0.00000   0.01672   0.01647   3.33415
    X4        0.30965  -0.00007   0.00000   0.00516   0.00491   0.31455
    Y4        1.33712  -0.00062   0.00000  -0.07847  -0.07804   1.25908
    Z4        1.70466   0.00014   0.00000   0.02583   0.02532   1.72999
    X5       -5.91428   0.00140   0.00000  -0.12463  -0.12552  -6.03981
    Y5        2.55306  -0.00507   0.00000  -0.00763  -0.00804   2.54502
    Z5       -1.71704   0.00466   0.00000   0.06342   0.06379  -1.65325
    X6       -7.06154   0.00808   0.00000   0.11414   0.11402  -6.94752
    Y6       -0.51380   0.00421   0.00000  -0.09540  -0.09601  -0.60981
    Z6        0.65634  -0.00270   0.00000   0.02678   0.02719   0.68353
    X7       -3.39400  -0.00069   0.00000   0.04361   0.04284  -3.35116
    Y7        4.61343  -0.00208   0.00000  -0.00134  -0.00144   4.61199
    Z7        1.62856   0.00004   0.00000  -0.03678  -0.03671   1.59186
    X8       -5.67324   0.00220   0.00000   0.01000   0.00990  -5.66334
    Y8        2.31744   0.00003   0.00000   0.05047   0.04997   2.36740
    Z8        4.11149  -0.00261   0.00000  -0.03076  -0.03044   4.08106
    X9       -0.93522  -0.00128   0.00000  -0.01343  -0.01333  -0.94855
    Y9        2.18341  -0.00099   0.00000   0.00630   0.00645   2.18986
    Z9        5.44237  -0.00250   0.00000   0.00101   0.00069   5.44307
   X10       -1.88684  -0.00114   0.00000  -0.07473  -0.07432  -1.96117
   Y10       -1.36140   0.00064   0.00000   0.00180   0.00184  -1.35956
   Z10        3.76626  -0.00007   0.00000   0.04879   0.04853   3.81478
   X11       -3.43251  -0.00571   0.00000   0.02740   0.02701  -3.40551
   Y11       -0.58816   0.00524   0.00000   0.11778   0.11774  -0.47043
   Z11       -1.13125   0.00156   0.00000  -0.09785  -0.09790  -1.22915
         Item               Value     Threshold  Converged?
 Maximum Force            0.008079     0.000450     NO 
 RMS     Force            0.002909     0.000300     NO 
 Maximum Displacement     0.125525     0.001800     NO 
 RMS     Displacement     0.052248     0.001200     NO 
 Predicted change in Energy=-8.316821D-04
 GradGradGradGradGradGradGradGradGradGradGradGradGradGradGradGradGradGrad

 1\1\GINC-MU01\Force\RHF\6-31G(d)\C3F8\LBL8\15-Sep-2025\0\\# hf/6-31G(d
 ) force\\Force calculation\\0,1\C,-2.71436637,0.47074383,-0.02566473\C
 ,-2.10001445,1.19509494,1.20226149\C,-0.81958999,0.55852718,1.75564393
 \F,0.1638585,0.70757598,0.90206847\F,-3.1297032,1.35102197,-0.90861812
 \F,-3.73680478,-0.27188907,0.34731942\F,-1.79602923,2.4413229,0.861798
 22\F,-3.00214768,1.22633483,2.17570756\F,-0.49489941,1.15541018,2.8799
 7966\F,-0.9984746,-0.72042127,1.99301661\F,-1.8164065,-0.31124349,-0.5
 9863338\\Version=ES64L-G16RevA.03\State=1-A\HF=-909.1211036\RMSD=5.572
 e-09\RMSF=2.909e-03\Dipole=-0.0043419,-0.0257866,-0.0293899\Quadrupole
 =0.1004767,-0.0928385,-0.0076382,-0.0919139,0.1083069,-0.0873659\PG=C0
 1 [X(C3F8)]\\@


 THE FIRST AND LAST THING REQUIRED OF GENIUS IS THE LOVE OF TRUTH.

                          -- GOETHE
 Job cpu time:       0 days  0 hours  0 minutes  7.6 seconds.
 Elapsed time:       0 days  0 hours  0 minutes  7.6 seconds.
 File lengths (MBytes):  RWF=     28 Int=      0 D2E=      0 Chk=      4 Scr=      2
 Normal termination of Gaussian 16 at Mon Sep 15 21:52:18 2025.
