 Entering Gaussian System, Link 0=g16
 Input=gauss.gjf
 Output=gauss.log
 Initial command:
 /software/Applications/gaussian/G16.A03.AVX/g16/l1.exe "/home/lbl8/code/hartree-fock_geomopt-rev-3/example/Gau-3226880.inp" -scrdir="/home/lbl8/code/hartree-fock_geomopt-rev-3/example/"
 Entering Link 1 = /software/Applications/gaussian/G16.A03.AVX/g16/l1.exe PID=   3226882.
  
 Copyright (c) 1988,1990,1992,1993,1995,1998,2003,2009,2016,
            Gaussian, Inc.  All Rights Reserved.
  
 This is part of the Gaussian(R) 16 program.  It is based on
 the Gaussian(R) 09 system (copyright 2009, Gaussian, Inc.),
 the Gaussian(R) 03 system (copyright 2003, Gaussian, Inc.),
 the Gaussian(R) 98 system (copyright 1998, Gaussian, Inc.),
 the Gaussian(R) 94 system (copyright 1995, Gaussian, Inc.),
 the Gaussian 92(TM) system (copyright 1992, Gaussian, Inc.),
 the Gaussian 90(TM) system (copyright 1990, Gaussian, Inc.),
 the Gaussian 88(TM) system (copyright 1988, Gaussian, Inc.),
 the Gaussian 86(TM) system (copyright 1986, Carnegie Mellon
 University), and the Gaussian 82(TM) system (copyright 1983,
 Carnegie Mellon University). Gaussian is a federally registered
 trademark of Gaussian, Inc.
  
 This software contains proprietary and confidential information,
 including trade secrets, belonging to Gaussian, Inc.
  
 This software is provided under written license and may be
 used, copied, transmitted, or stored only in accord with that
 written license.
  
 The following legend is applicable only to US Government
 contracts under FAR:
  
                    RESTRICTED RIGHTS LEGEND
  
 Use, reproduction and disclosure by the US Government is
 subject to restrictions as set forth in subparagraphs (a)
 and (c) of the Commercial Computer Software - Restricted
 Rights clause in FAR 52.227-19.
  
 Gaussian, Inc.
 340 Quinnipiac St., Bldg. 40, Wallingford CT 06492
  
  
 ---------------------------------------------------------------
 Warning -- This program may not be used in any manner that
 competes with the business of Gaussian, Inc. or will provide
 assistance to any competitor of Gaussian, Inc.  The licensee
 of this program is prohibited from giving any competitor of
 Gaussian, Inc. access to this program.  By using this program,
 the user acknowledges that Gaussian, Inc. is engaged in the
 business of creating and licensing software in the field of
 computational chemistry and represents and warrants to the
 licensee that it is not a competitor of Gaussian, Inc. and that
 it will not use this program in any manner prohibited above.
 ---------------------------------------------------------------
  

 Cite this work as:
 Gaussian 16, Revision A.03,
 M. J. Frisch, G. W. Trucks, H. B. Schlegel, G. E. Scuseria, 
 M. A. Robb, J. R. Cheeseman, G. Scalmani, V. Barone, 
 G. A. Petersson, H. Nakatsuji, X. Li, M. Caricato, A. V. Marenich, 
 J. Bloino, B. G. Janesko, R. Gomperts, B. Mennucci, H. P. Hratchian, 
 J. V. Ortiz, A. F. Izmaylov, J. L. Sonnenberg, D. Williams-Young, 
 F. Ding, F. Lipparini, F. Egidi, J. Goings, B. Peng, A. Petrone, 
 T. Henderson, D. Ranasinghe, V. G. Zakrzewski, J. Gao, N. Rega, 
 G. Zheng, W. Liang, M. Hada, M. Ehara, K. Toyota, R. Fukuda, 
 J. Hasegawa, M. Ishida, T. Nakajima, Y. Honda, O. Kitao, H. Nakai, 
 T. Vreven, K. Throssell, J. A. Montgomery, Jr., J. E. Peralta, 
 F. Ogliaro, M. J. Bearpark, J. J. Heyd, E. N. Brothers, K. N. Kudin, 
 V. N. Staroverov, T. A. Keith, R. Kobayashi, J. Normand, 
 K. Raghavachari, A. P. Rendell, J. C. Burant, S. S. Iyengar, 
 J. Tomasi, M. Cossi, J. M. Millam, M. Klene, C. Adamo, R. Cammi, 
 J. W. Ochterski, R. L. Martin, K. Morokuma, O. Farkas, 
 J. B. Foresman, and D. J. Fox, Gaussian, Inc., Wallingford CT, 2016.
 
 ******************************************
 Gaussian 16:  ES64L-G16RevA.03 25-Dec-2016
                15-Sep-2025 
 ******************************************
 %chk=gauss.chk
 -------------------
 # hf/6-31G(d) force
 -------------------
 1/10=7,30=1,38=1/1,3;
 2/12=2,17=6,18=5,40=1/2;
 3/5=1,6=6,7=1,11=9,25=1,30=1,71=1/1,2,3;
 4//1;
 5/5=2,38=5/2;
 6/7=2,8=2,9=2,10=2,28=1/1;
 7/29=1/1,2,3,16;
 1/10=7,30=1/3;
 99//99;
 -----------------
 Force calculation
 -----------------
 Symbolic Z-matrix:
 Charge =  0 Multiplicity = 1
 C                    -2.70252   0.47218  -0.02802 
 C                    -2.13205   1.17383   1.24343 
 C                    -0.80555   0.58638   1.72977 
 F                     0.11049   0.71463   0.80082 
 F                    -2.89345   1.34769  -0.9822 
 F                    -3.84135  -0.11153   0.24785 
 F                    -1.93664   2.45702   0.9872 
 F                    -3.00731   1.06871   2.23069 
 F                    -0.40422   1.22087   2.80464 
 F                    -0.9634   -0.68232   2.02301 
 F                    -1.86857  -0.44499  -0.47231 
 

 GradGradGradGradGradGradGradGradGradGradGradGradGradGradGradGradGradGrad
 Berny optimization.
 Initialization pass.
 Trust Radius=3.00D-01 FncErr=1.00D-07 GrdErr=1.00D-07 EigMax=2.50D+02 EigMin=1.00D-04
 Number of steps in this run=      2 maximum allowed number of steps=      2.
 GradGradGradGradGradGradGradGradGradGradGradGradGradGradGradGradGradGrad

                          Input orientation:                          
 ---------------------------------------------------------------------
 Center     Atomic      Atomic             Coordinates (Angstroms)
 Number     Number       Type             X           Y           Z
 ---------------------------------------------------------------------
      1          6           0       -2.702520    0.472182   -0.028018
      2          6           0       -2.132046    1.173830    1.243432
      3          6           0       -0.805550    0.586383    1.729771
      4          9           0        0.110486    0.714631    0.800818
      5          9           0       -2.893454    1.347685   -0.982196
      6          9           0       -3.841349   -0.111528    0.247854
      7          9           0       -1.936643    2.457023    0.987203
      8          9           0       -3.007307    1.068715    2.230686
      9          9           0       -0.404219    1.220865    2.804636
     10          9           0       -0.963402   -0.682321    2.023006
     11          9           0       -1.868573   -0.444986   -0.472311
 ---------------------------------------------------------------------
                    Distance matrix (angstroms):
                    1          2          3          4          5
     1  C    0.000000
     2  C    1.560236   0.000000
     3  C    2.588699   1.530102   0.000000
     4  F    2.942576   2.331463   1.310925   0.000000
     5  F    1.308975   2.358683   3.506236   3.550148   0.000000
     6  F    1.309104   2.359034   3.449527   4.074962   2.130923
     7  F    2.357295   1.323035   2.308696   2.694701   2.454516
     8  F    2.355948   1.323557   2.308960   3.448265   3.226979
     9  F    3.723795   2.329154   1.311095   2.129902   4.533483
    10  F    2.926450   2.327823   1.311683   2.144400   4.108194
    11  F    1.316838   2.373553   2.653847   2.623402   2.126978
                    6          7          8          9         10
     6  F    0.000000
     7  F    3.282073   0.000000
     8  F    2.453614   2.149412   0.000000
     9  F    4.486232   2.679454   2.669951   0.000000
    10  F    3.429220   3.446095   2.699409   2.132076   0.000000
    11  F    2.126424   3.249073   3.300635   3.956990   2.665007
                   11
    11  F    0.000000
 Stoichiometry    C3F8
 Framework group  C1[X(C3F8)]
 Deg. of freedom    27
 Full point group                 C1      NOp   1
 Largest Abelian subgroup         C1      NOp   1
 Largest concise Abelian subgroup C1      NOp   1
                         Standard orientation:                         
 ---------------------------------------------------------------------
 Center     Atomic      Atomic             Coordinates (Angstroms)
 Number     Number       Type             X           Y           Z
 ---------------------------------------------------------------------
      1          6           0       -1.305291   -0.208422   -0.000746
      2          6           0        0.021773    0.612087   -0.000407
      3          6           0        1.283003   -0.254234   -0.000454
      4          9           0        1.316065   -1.000195   -1.077939
      5          9           0       -2.048480    0.131354   -1.023312
      6          9           0       -1.974600    0.010182    1.102880
      7          9           0        0.061383    1.384583   -1.073767
      8          9           0        0.059630    1.381820    1.075642
      9          9           0        2.348623    0.509459    0.013506
     10          9           0        1.296852   -1.017347    1.066306
     11          9           0       -1.059129   -1.499477   -0.082244
 ---------------------------------------------------------------------
 Rotational constants (GHZ):           1.7083190           0.9797884           0.9184652
 Standard basis: 6-31G(d) (6D, 7F)
 There are   165 symmetry adapted cartesian basis functions of A   symmetry.
 There are   165 symmetry adapted basis functions of A   symmetry.
   165 basis functions,   308 primitive gaussians,   165 cartesian basis functions
    45 alpha electrons       45 beta electrons
       nuclear repulsion energy       806.9016266759 Hartrees.
 NAtoms=   11 NActive=   11 NUniq=   11 SFac= 1.00D+00 NAtFMM=   60 NAOKFM=F Big=F
 Integral buffers will be    131072 words long.
 Raffenetti 1 integral format.
 Two-electron integral symmetry is turned on.
 One-electron integrals computed using PRISM.
 NBasis=   165 RedAO= T EigKep=  8.22D-04  NBF=   165
 NBsUse=   165 1.00D-06 EigRej= -1.00D+00 NBFU=   165
 ExpMin= 1.69D-01 ExpMax= 7.00D+03 ExpMxC= 1.05D+03 IAcc=3 IRadAn=         5 AccDes= 0.00D+00
 Harris functional with IExCor=  205 and IRadAn=       5 diagonalized for initial guess.
 HarFok:  IExCor=  205 AccDes= 0.00D+00 IRadAn=         5 IDoV= 1 UseB2=F ITyADJ=14
 ICtDFT=  3500011 ScaDFX=  1.000000  1.000000  1.000000  1.000000
 FoFCou: FMM=F IPFlag=           0 FMFlag=      100000 FMFlg1=           0
         NFxFlg=           0 DoJE=T BraDBF=F KetDBF=T FulRan=T
         wScrn=  0.000000 ICntrl=       500 IOpCl=  0 I1Cent=   200000004 NGrid=           0
         NMat0=    1 NMatS0=      1 NMatT0=    0 NMatD0=    1 NMtDS0=    0 NMtDT0=    0
 Petite list used in FoFCou.
 Keep R1 ints in memory in canonical form, NReq=96071382.
 Requested convergence on RMS density matrix=1.00D-08 within 128 cycles.
 Requested convergence on MAX density matrix=1.00D-06.
 Requested convergence on             energy=1.00D-06.
 No special actions if energy rises.
 SCF Done:  E(RHF) =  -909.119817458     A.U. after   11 cycles
            NFock= 11  Conv=0.53D-08     -V/T= 2.0019

 **********************************************************************

            Population analysis using the SCF density.

 **********************************************************************

 Orbital symmetries:
       Occupied  (A) (A) (A) (A) (A) (A) (A) (A) (A) (A) (A) (A)
                 (A) (A) (A) (A) (A) (A) (A) (A) (A) (A) (A) (A)
                 (A) (A) (A) (A) (A) (A) (A) (A) (A) (A) (A) (A)
                 (A) (A) (A) (A) (A) (A) (A) (A) (A)
       Virtual   (A) (A) (A) (A) (A) (A) (A) (A) (A) (A) (A) (A)
                 (A) (A) (A) (A) (A) (A) (A) (A) (A) (A) (A) (A)
                 (A) (A) (A) (A) (A) (A) (A) (A) (A) (A) (A) (A)
                 (A) (A) (A) (A) (A) (A) (A) (A) (A) (A) (A) (A)
                 (A) (A) (A) (A) (A) (A) (A) (A) (A) (A) (A) (A)
                 (A) (A) (A) (A) (A) (A) (A) (A) (A) (A) (A) (A)
                 (A) (A) (A) (A) (A) (A) (A) (A) (A) (A) (A) (A)
                 (A) (A) (A) (A) (A) (A) (A) (A) (A) (A) (A) (A)
                 (A) (A) (A) (A) (A) (A) (A) (A) (A) (A) (A) (A)
                 (A) (A) (A) (A) (A) (A) (A) (A) (A) (A) (A) (A)
 The electronic state is 1-A.
 Alpha  occ. eigenvalues --  -26.37792 -26.37777 -26.37750 -26.37652 -26.37636
 Alpha  occ. eigenvalues --  -26.37569 -26.37386 -26.37358 -11.54927 -11.54485
 Alpha  occ. eigenvalues --  -11.48076  -1.78908  -1.77770  -1.73321  -1.68336
 Alpha  occ. eigenvalues --   -1.67727  -1.67676  -1.67247  -1.66107  -1.12171
 Alpha  occ. eigenvalues --   -1.02393  -0.95548  -0.90885  -0.88955  -0.87609
 Alpha  occ. eigenvalues --   -0.86569  -0.85703  -0.85306  -0.81426  -0.76310
 Alpha  occ. eigenvalues --   -0.75316  -0.74830  -0.74073  -0.73844  -0.72787
 Alpha  occ. eigenvalues --   -0.71429  -0.70185  -0.70155  -0.68431  -0.68103
 Alpha  occ. eigenvalues --   -0.67998  -0.67169  -0.66994  -0.63257  -0.55916
 Alpha virt. eigenvalues --    0.24366   0.25102   0.35668   0.39868   0.42282
 Alpha virt. eigenvalues --    0.44641   0.46816   0.51100   0.52069   0.56316
 Alpha virt. eigenvalues --    0.64626   0.64982   0.68435   0.68758   0.71898
 Alpha virt. eigenvalues --    0.76597   0.77350   0.85864   0.87264   0.90850
 Alpha virt. eigenvalues --    1.03891   1.14352   1.20607   1.23999   1.25126
 Alpha virt. eigenvalues --    1.31541   1.33191   1.34226   1.34712   1.36080
 Alpha virt. eigenvalues --    1.40161   1.48284   1.51288   1.52523   1.52769
 Alpha virt. eigenvalues --    1.56452   1.56892   1.59505   1.60961   1.61503
 Alpha virt. eigenvalues --    1.63093   1.63383   1.64680   1.65113   1.66730
 Alpha virt. eigenvalues --    1.67820   1.68896   1.71958   1.73449   1.79216
 Alpha virt. eigenvalues --    1.79573   1.81260   1.84722   1.89201   1.93803
 Alpha virt. eigenvalues --    1.96766   1.97529   1.98997   2.02634   2.05844
 Alpha virt. eigenvalues --    2.06142   2.07670   2.08497   2.09336   2.11088
 Alpha virt. eigenvalues --    2.12966   2.14327   2.18155   2.21072   2.26924
 Alpha virt. eigenvalues --    2.27572   2.30179   2.31056   2.32735   2.33094
 Alpha virt. eigenvalues --    2.37877   2.38287   2.38787   2.38959   2.40372
 Alpha virt. eigenvalues --    2.40826   2.44409   2.46416   2.50878   2.51364
 Alpha virt. eigenvalues --    2.56289   2.65904   2.71181   2.75303   2.78462
 Alpha virt. eigenvalues --    2.86910   2.92338   2.97835   2.98158   3.03582
 Alpha virt. eigenvalues --    3.09023   3.14799   3.16846   3.27660   3.28396
 Alpha virt. eigenvalues --    3.32115   3.36676   3.40282   3.41176   3.42753
 Alpha virt. eigenvalues --    3.45505   3.50306   3.51037   3.53371   4.45973
 Alpha virt. eigenvalues --    4.52220   4.73037   4.81046   5.09304   5.27032
 Alpha virt. eigenvalues --    5.51351   5.58015   6.17180   6.23552   7.51307
          Condensed to atoms (all electrons):
               1          2          3          4          5          6
     1  C    3.766095   0.366329  -0.071277   0.007309   0.290205   0.290656
     2  C    0.366329   4.432214   0.385821  -0.039541  -0.028006  -0.029482
     3  C   -0.071277   0.385821   3.763536   0.275670   0.001062   0.000977
     4  F    0.007309  -0.039541   0.275670   9.166016  -0.000065   0.000001
     5  F    0.290205  -0.028006   0.001062  -0.000065   9.143034  -0.034698
     6  F    0.290656  -0.029482   0.000977   0.000001  -0.034698   9.143221
     7  F   -0.017079   0.217560  -0.019569   0.001110  -0.000743   0.000276
     8  F   -0.017266   0.217264  -0.019704   0.000371   0.000242  -0.000635
     9  F    0.001434  -0.025294   0.297793  -0.034616  -0.000001  -0.000001
    10  F    0.009050  -0.041481   0.275278  -0.030500   0.000001  -0.000107
    11  F    0.284939  -0.036439   0.012332  -0.001573  -0.035652  -0.035800
               7          8          9         10         11
     1  C   -0.017079  -0.017266   0.001434   0.009050   0.284939
     2  C    0.217560   0.217264  -0.025294  -0.041481  -0.036439
     3  C   -0.019569  -0.019704   0.297793   0.275278   0.012332
     4  F    0.001110   0.000371  -0.034616  -0.030500  -0.001573
     5  F   -0.000743   0.000242  -0.000001   0.000001  -0.035652
     6  F    0.000276  -0.000635  -0.000001  -0.000107  -0.035800
     7  F    9.207265  -0.030049   0.000547   0.000377   0.000315
     8  F   -0.030049   9.207987   0.000566   0.001132   0.000330
     9  F    0.000547   0.000566   9.136964  -0.034221  -0.000001
    10  F    0.000377   0.001132  -0.034221   9.167222  -0.001519
    11  F    0.000315   0.000330  -0.000001  -0.001519   9.159193
 Mulliken charges:
               1
     1  C    1.089604
     2  C    0.581055
     3  C    1.098081
     4  F   -0.344181
     5  F   -0.335378
     6  F   -0.334408
     7  F   -0.360010
     8  F   -0.360236
     9  F   -0.343171
    10  F   -0.345232
    11  F   -0.346125
 Sum of Mulliken charges =  -0.00000
 Mulliken charges with hydrogens summed into heavy atoms:
               1
     1  C    1.089604
     2  C    0.581055
     3  C    1.098081
     4  F   -0.344181
     5  F   -0.335378
     6  F   -0.334408
     7  F   -0.360010
     8  F   -0.360236
     9  F   -0.343171
    10  F   -0.345232
    11  F   -0.346125
 Electronic spatial extent (au):  <R**2>=           1283.7318
 Charge=             -0.0000 electrons
 Dipole moment (field-independent basis, Debye):
    X=             -0.0601    Y=             -0.0271    Z=             -0.0097  Tot=              0.0666
 Quadrupole moment (field-independent basis, Debye-Ang):
   XX=            -56.9439   YY=            -57.2442   ZZ=            -57.2621
   XY=             -0.2390   XZ=              0.0028   YZ=              0.0020
 Traceless Quadrupole moment (field-independent basis, Debye-Ang):
   XX=              0.2061   YY=             -0.0941   ZZ=             -0.1120
   XY=             -0.2390   XZ=              0.0028   YZ=              0.0020
 Octapole moment (field-independent basis, Debye-Ang**2):
  XXX=             -0.2760  YYY=             -0.4671  ZZZ=             -0.1910  XYY=             -0.7957
  XXY=             -1.4257  XXZ=              0.0667  XZZ=              1.0263  YZZ=             -1.3067
  YYZ=              0.1355  XYZ=             -0.1174
 Hexadecapole moment (field-independent basis, Debye-Ang**3):
 XXXX=           -668.7645 YYYY=           -289.3142 ZZZZ=           -227.1606 XXXY=             -1.8837
 XXXZ=             -0.2657 YYYX=             -1.3113 YYYZ=             -0.0938 ZZZX=              0.3302
 ZZZY=              0.0453 XXYY=           -156.3022 XXZZ=           -152.8024 YYZZ=            -88.3706
 XXYZ=              0.1977 YYXZ=             -0.1947 ZZXY=              2.2763
 N-N= 8.069016266759D+02 E-N=-3.780289963259D+03  KE= 9.074242487362D+02
 Calling FoFJK, ICntrl=      2127 FMM=F ISym2X=0 I1Cent= 0 IOpClX= 0 NMat=1 NMatS=1 NMatT=0.
 ***** Axes restored to original set *****
 -------------------------------------------------------------------
 Center     Atomic                   Forces (Hartrees/Bohr)
 Number     Number              X              Y              Z
 -------------------------------------------------------------------
      1        6           0.000302017   -0.000563368   -0.000316170
      2        6           0.000497783   -0.001434279   -0.000884057
      3        6           0.000411032    0.000375194    0.001089636
      4        9           0.001837435   -0.000106624    0.000142657
      5        9          -0.000661096    0.000283336    0.000637141
      6        9           0.000015753    0.000658907    0.000194784
      7        9           0.000569476    0.000785137   -0.001249141
      8        9          -0.000769177   -0.000596334    0.000291320
      9        9          -0.001743409    0.000507324   -0.000492370
     10        9           0.001176492   -0.001161517    0.000688896
     11        9          -0.001636306    0.001252224   -0.000102697
 -------------------------------------------------------------------
 Cartesian Forces:  Max     0.001837435 RMS     0.000860444

 GradGradGradGradGradGradGradGradGradGradGradGradGradGradGradGradGradGrad
 Berny optimization.
 Search for a local minimum.
 Step number   1 out of a maximum of    2
 All quantities printed in internal units (Hartrees-Bohrs-Radians)
 Second derivative matrix not updated -- first step.
 ITU=  0
     Eigenvalues ---    0.00160   0.00294   0.01344   0.03432   0.05278
     Eigenvalues ---    0.05354   0.05369   0.06802   0.08540   0.09238
     Eigenvalues ---    0.12517   0.14486   0.15224   0.15640   0.18278
     Eigenvalues ---    0.21420   0.24654   0.36383   0.64601   1.02244
     Eigenvalues ---    1.20095   1.31336   1.49121   1.60954   1.65020
     Eigenvalues ---    1.67257   1.74425
 Quadratic step=3.176D-01 exceeds max=3.000D-01 adjusted using Lamda=-2.123D-04.
 Angle between NR and scaled steps=   2.37 degrees.
 Angle between quadratic step and forces=  58.84 degrees.
 Linear search not attempted -- first point.
 B after Tr=    -0.000286    0.001131    0.000369
         Rot=    1.000000   -0.000033   -0.000003   -0.000065 Ang=  -0.01 deg.
 Variable       Old X    -DE/DX   Delta X   Delta X   Delta X     New X
                                 (Linear)    (Quad)   (Total)
    X1       -5.10702   0.00030   0.00000  -0.02521  -0.02561  -5.13263
    Y1        0.89229  -0.00056   0.00000  -0.00414  -0.00367   0.88862
    Z1       -0.05295  -0.00032   0.00000  -0.01563  -0.01517  -0.06812
    X2       -4.02898   0.00050   0.00000   0.03318   0.03262  -3.99636
    Y2        2.21822  -0.00143   0.00000  -0.01507  -0.01461   2.20361
    Z2        2.34975  -0.00088   0.00000  -0.03747  -0.03693   2.31281
    X3       -1.52227   0.00041   0.00000   0.01892   0.01851  -1.50376
    Y3        1.10810   0.00038   0.00000  -0.01405  -0.01333   1.09477
    Z3        3.26879   0.00109   0.00000   0.02440   0.02485   3.29364
    X4        0.20879   0.00184   0.00000   0.09306   0.09261   0.30139
    Y4        1.35046  -0.00011   0.00000   0.01565   0.01671   1.36717
    Z4        1.51333   0.00014   0.00000   0.09903   0.09948   1.61281
    X5       -5.46783  -0.00066   0.00000  -0.13064  -0.13128  -5.59911
    Y5        2.54676   0.00028   0.00000   0.02352   0.02404   2.57080
    Z5       -1.85608   0.00064   0.00000   0.03123   0.03180  -1.82428
    X6       -7.25910   0.00002   0.00000   0.00855   0.00829  -7.25080
    Y6       -0.21076   0.00066   0.00000  -0.03604  -0.03589  -0.24665
    Z6        0.46838   0.00019   0.00000   0.05421   0.05461   0.52298
    X7       -3.65973   0.00057   0.00000   0.07018   0.06931  -3.59042
    Y7        4.64310   0.00079   0.00000  -0.02734  -0.02679   4.61631
    Z7        1.86554  -0.00125   0.00000  -0.07989  -0.07920   1.78635
    X8       -5.68299  -0.00077   0.00000   0.02086   0.02033  -5.66266
    Y8        2.01958  -0.00060   0.00000   0.04172   0.04184   2.06142
    Z8        4.21538   0.00029   0.00000  -0.04063  -0.04009   4.17529
    X9       -0.76386  -0.00174   0.00000  -0.08460  -0.08515  -0.84902
    Y9        2.30710   0.00051   0.00000  -0.00373  -0.00307   2.30403
    Z9        5.29999  -0.00049   0.00000   0.05564   0.05616   5.35616
   X10       -1.82057   0.00118   0.00000   0.04028   0.04019  -1.78038
   Y10       -1.28940  -0.00116   0.00000  -0.02045  -0.01980  -1.30920
   Z10        3.82293   0.00069   0.00000   0.01612   0.01642   3.83934
   X11       -3.53109  -0.00164   0.00000  -0.03963  -0.03982  -3.57091
   Y11       -0.84090   0.00125   0.00000   0.03383   0.03457  -0.80633
   Z11       -0.89254  -0.00010   0.00000  -0.11227  -0.11193  -1.00447
         Item               Value     Threshold  Converged?
 Maximum Force            0.001837     0.000450     NO 
 RMS     Force            0.000860     0.000300     NO 
 Maximum Displacement     0.131275     0.001800     NO 
 RMS     Displacement     0.052269     0.001200     NO 
 Predicted change in Energy=-3.936055D-04
 GradGradGradGradGradGradGradGradGradGradGradGradGradGradGradGradGradGrad

 1\1\GINC-MU01\Force\RHF\6-31G(d)\C3F8\LBL8\15-Sep-2025\0\\# hf/6-31G(d
 ) force\\Force calculation\\0,1\C,-2.70252049,0.47218181,-0.02801836\C
 ,-2.13204566,1.17382972,1.24343151\C,-0.80554995,0.58638264,1.72977128
 \F,0.11048608,0.7146307,0.80081758\F,-2.89345353,1.34768513,-0.9821961
 3\F,-3.84134946,-0.11152828,0.24785364\F,-1.93664346,2.45702344,0.9872
 0291\F,-3.00730737,1.06871456,2.2306855\F,-0.40421877,1.22086517,2.804
 636\F,-0.96340175,-0.68232089,2.02300553\F,-1.8685726,-0.44498609,-0.4
 7231056\\Version=ES64L-G16RevA.03\State=1-A\HF=-909.1198175\RMSD=5.331
 e-09\RMSF=8.604e-04\Dipole=-0.0101368,-0.0070175,-0.0231197\Quadrupole
 =0.1657933,-0.0919774,-0.0738159,-0.0893155,0.1160569,-0.0843096\PG=C0
 1 [X(C3F8)]\\@


 IT IS A QUALITY OF REVOLUTIONS NOT TO GO BY OLD LINES OR OLD LAWS,
 BUT TO BREAK UP BOTH, AND MAKE NEW ONES.
                                              -- A. LINCOLN (1848)
 Job cpu time:       0 days  0 hours  0 minutes  7.6 seconds.
 Elapsed time:       0 days  0 hours  0 minutes  7.6 seconds.
 File lengths (MBytes):  RWF=     28 Int=      0 D2E=      0 Chk=      4 Scr=      2
 Normal termination of Gaussian 16 at Mon Sep 15 21:49:57 2025.
