 Entering Gaussian System, Link 0=g16
 Input=gauss.gjf
 Output=gauss.log
 Initial command:
 /software/Applications/gaussian/G16.A03.AVX/g16/l1.exe "/home/lbl8/code/hartree-fock_geomopt-rev-3/example/Gau-3231119.inp" -scrdir="/home/lbl8/code/hartree-fock_geomopt-rev-3/example/"
 Entering Link 1 = /software/Applications/gaussian/G16.A03.AVX/g16/l1.exe PID=   3231121.
  
 Copyright (c) 1988,1990,1992,1993,1995,1998,2003,2009,2016,
            Gaussian, Inc.  All Rights Reserved.
  
 This is part of the Gaussian(R) 16 program.  It is based on
 the Gaussian(R) 09 system (copyright 2009, Gaussian, Inc.),
 the Gaussian(R) 03 system (copyright 2003, Gaussian, Inc.),
 the Gaussian(R) 98 system (copyright 1998, Gaussian, Inc.),
 the Gaussian(R) 94 system (copyright 1995, Gaussian, Inc.),
 the Gaussian 92(TM) system (copyright 1992, Gaussian, Inc.),
 the Gaussian 90(TM) system (copyright 1990, Gaussian, Inc.),
 the Gaussian 88(TM) system (copyright 1988, Gaussian, Inc.),
 the Gaussian 86(TM) system (copyright 1986, Carnegie Mellon
 University), and the Gaussian 82(TM) system (copyright 1983,
 Carnegie Mellon University). Gaussian is a federally registered
 trademark of Gaussian, Inc.
  
 This software contains proprietary and confidential information,
 including trade secrets, belonging to Gaussian, Inc.
  
 This software is provided under written license and may be
 used, copied, transmitted, or stored only in accord with that
 written license.
  
 The following legend is applicable only to US Government
 contracts under FAR:
  
                    RESTRICTED RIGHTS LEGEND
  
 Use, reproduction and disclosure by the US Government is
 subject to restrictions as set forth in subparagraphs (a)
 and (c) of the Commercial Computer Software - Restricted
 Rights clause in FAR 52.227-19.
  
 Gaussian, Inc.
 340 Quinnipiac St., Bldg. 40, Wallingford CT 06492
  
  
 ---------------------------------------------------------------
 Warning -- This program may not be used in any manner that
 competes with the business of Gaussian, Inc. or will provide
 assistance to any competitor of Gaussian, Inc.  The licensee
 of this program is prohibited from giving any competitor of
 Gaussian, Inc. access to this program.  By using this program,
 the user acknowledges that Gaussian, Inc. is engaged in the
 business of creating and licensing software in the field of
 computational chemistry and represents and warrants to the
 licensee that it is not a competitor of Gaussian, Inc. and that
 it will not use this program in any manner prohibited above.
 ---------------------------------------------------------------
  

 Cite this work as:
 Gaussian 16, Revision A.03,
 M. J. Frisch, G. W. Trucks, H. B. Schlegel, G. E. Scuseria, 
 M. A. Robb, J. R. Cheeseman, G. Scalmani, V. Barone, 
 G. A. Petersson, H. Nakatsuji, X. Li, M. Caricato, A. V. Marenich, 
 J. Bloino, B. G. Janesko, R. Gomperts, B. Mennucci, H. P. Hratchian, 
 J. V. Ortiz, A. F. Izmaylov, J. L. Sonnenberg, D. Williams-Young, 
 F. Ding, F. Lipparini, F. Egidi, J. Goings, B. Peng, A. Petrone, 
 T. Henderson, D. Ranasinghe, V. G. Zakrzewski, J. Gao, N. Rega, 
 G. Zheng, W. Liang, M. Hada, M. Ehara, K. Toyota, R. Fukuda, 
 J. Hasegawa, M. Ishida, T. Nakajima, Y. Honda, O. Kitao, H. Nakai, 
 T. Vreven, K. Throssell, J. A. Montgomery, Jr., J. E. Peralta, 
 F. Ogliaro, M. J. Bearpark, J. J. Heyd, E. N. Brothers, K. N. Kudin, 
 V. N. Staroverov, T. A. Keith, R. Kobayashi, J. Normand, 
 K. Raghavachari, A. P. Rendell, J. C. Burant, S. S. Iyengar, 
 J. Tomasi, M. Cossi, J. M. Millam, M. Klene, C. Adamo, R. Cammi, 
 J. W. Ochterski, R. L. Martin, K. Morokuma, O. Farkas, 
 J. B. Foresman, and D. J. Fox, Gaussian, Inc., Wallingford CT, 2016.
 
 ******************************************
 Gaussian 16:  ES64L-G16RevA.03 25-Dec-2016
                15-Sep-2025 
 ******************************************
 %chk=gauss.chk
 -------------------
 # hf/6-31G(d) force
 -------------------
 1/10=7,30=1,38=1/1,3;
 2/12=2,17=6,18=5,40=1/2;
 3/5=1,6=6,7=1,11=9,25=1,30=1,71=1/1,2,3;
 4//1;
 5/5=2,38=5/2;
 6/7=2,8=2,9=2,10=2,28=1/1;
 7/29=1/1,2,3,16;
 1/10=7,30=1/3;
 99//99;
 -----------------
 Force calculation
 -----------------
 Symbolic Z-matrix:
 Charge =  0 Multiplicity = 1
 C                    -2.68528   0.48682  -0.03901 
 C                    -2.05185   1.22523   1.14594 
 C                    -0.8845    0.50606   1.82954 
 F                     0.13094   0.44543   1.00399 
 F                    -3.53421   1.28653  -0.62972 
 F                    -3.32225  -0.58344   0.36344 
 F                    -1.58676   2.38077   0.69034 
 F                    -2.9993    1.45716   2.04281 
 F                    -0.52239   1.16877   2.89711 
 F                    -1.22355  -0.70702   2.18041 
 F                    -1.76542   0.13616  -0.89997 
 

 GradGradGradGradGradGradGradGradGradGradGradGradGradGradGradGradGradGrad
 Berny optimization.
 Initialization pass.
 Trust Radius=3.00D-01 FncErr=1.00D-07 GrdErr=1.00D-07 EigMax=2.50D+02 EigMin=1.00D-04
 Number of steps in this run=      2 maximum allowed number of steps=      2.
 GradGradGradGradGradGradGradGradGradGradGradGradGradGradGradGradGradGrad

                          Input orientation:                          
 ---------------------------------------------------------------------
 Center     Atomic      Atomic             Coordinates (Angstroms)
 Number     Number       Type             X           Y           Z
 ---------------------------------------------------------------------
      1          6           0       -2.685282    0.486824   -0.039015
      2          6           0       -2.051851    1.225229    1.145939
      3          6           0       -0.884498    0.506057    1.829544
      4          9           0        0.130937    0.445427    1.003987
      5          9           0       -3.534214    1.286535   -0.629718
      6          9           0       -3.322245   -0.583441    0.363438
      7          9           0       -1.586757    2.380772    0.690344
      8          9           0       -2.999300    1.457161    2.042810
      9          9           0       -0.522393    1.168767    2.897107
     10          9           0       -1.223553   -0.707017    2.180413
     11          9           0       -1.765424    0.136165   -0.899970
 ---------------------------------------------------------------------
                    Distance matrix (angstroms):
                    1          2          3          4          5
     1  C    0.000000
     2  C    1.533164   0.000000
     3  C    2.595131   1.532070   0.000000
     4  F    3.003441   2.322242   1.310087   0.000000
     5  F    1.307346   2.313897   3.698394   4.099975   0.000000
     6  F    1.308876   2.344674   3.046159   3.659691   2.127933
     7  F    2.307760   1.326332   2.303368   2.606608   2.594708
     8  F    2.318222   1.325077   2.328620   3.449803   2.730871
     9  F    3.709979   2.325730   1.307668   2.129311   4.639336
    10  F    2.913377   2.343030   1.307522   2.132310   4.148523
    11  F    1.307801   2.335347   2.891903   2.704974   2.127206
                    6          7          8          9         10
     6  F    0.000000
     7  F    3.450412   0.000000
     8  F    2.662450   2.162753   0.000000
     9  F    4.162798   2.733428   2.635918   0.000000
    10  F    2.778702   3.447704   2.802834   2.126933   0.000000
    11  F    2.130193   2.756679   3.453612   4.126644   3.239343
                   11
    11  F    0.000000
 Stoichiometry    C3F8
 Framework group  C1[X(C3F8)]
 Deg. of freedom    27
 Full point group                 C1      NOp   1
 Largest Abelian subgroup         C1      NOp   1
 Largest concise Abelian subgroup C1      NOp   1
                         Standard orientation:                         
 ---------------------------------------------------------------------
 Center     Atomic      Atomic             Coordinates (Angstroms)
 Number     Number       Type             X           Y           Z
 ---------------------------------------------------------------------
      1          6           0       -1.295868   -0.232502    0.004221
      2          6           0        0.001557    0.584349    0.009920
      3          6           0        1.299259   -0.230027    0.008235
      4          9           0        1.411377   -0.865118   -1.132123
      5          9           0       -2.304841    0.579040   -0.176129
      6          9           0       -1.457176   -0.861826    1.140482
      7          9           0        0.005800    1.329591   -1.087237
      8          9           0       -0.010796    1.372528    1.075026
      9          9           0        2.323130    0.571262    0.148299
     10          9           0        1.306949   -1.099569    0.984684
     11          9           0       -1.277741   -1.107121   -0.967919
 ---------------------------------------------------------------------
 Rotational constants (GHZ):           1.7270965           0.9789849           0.9231744
 Standard basis: 6-31G(d) (6D, 7F)
 There are   165 symmetry adapted cartesian basis functions of A   symmetry.
 There are   165 symmetry adapted basis functions of A   symmetry.
   165 basis functions,   308 primitive gaussians,   165 cartesian basis functions
    45 alpha electrons       45 beta electrons
       nuclear repulsion energy       808.1090946639 Hartrees.
 NAtoms=   11 NActive=   11 NUniq=   11 SFac= 1.00D+00 NAtFMM=   60 NAOKFM=F Big=F
 Integral buffers will be    131072 words long.
 Raffenetti 1 integral format.
 Two-electron integral symmetry is turned on.
 One-electron integrals computed using PRISM.
 NBasis=   165 RedAO= T EigKep=  1.48D-03  NBF=   165
 NBsUse=   165 1.00D-06 EigRej= -1.00D+00 NBFU=   165
 ExpMin= 1.69D-01 ExpMax= 7.00D+03 ExpMxC= 1.05D+03 IAcc=3 IRadAn=         5 AccDes= 0.00D+00
 Harris functional with IExCor=  205 and IRadAn=       5 diagonalized for initial guess.
 HarFok:  IExCor=  205 AccDes= 0.00D+00 IRadAn=         5 IDoV= 1 UseB2=F ITyADJ=14
 ICtDFT=  3500011 ScaDFX=  1.000000  1.000000  1.000000  1.000000
 FoFCou: FMM=F IPFlag=           0 FMFlag=      100000 FMFlg1=           0
         NFxFlg=           0 DoJE=T BraDBF=F KetDBF=T FulRan=T
         wScrn=  0.000000 ICntrl=       500 IOpCl=  0 I1Cent=   200000004 NGrid=           0
         NMat0=    1 NMatS0=      1 NMatT0=    0 NMatD0=    1 NMtDS0=    0 NMtDT0=    0
 Petite list used in FoFCou.
 Keep R1 ints in memory in canonical form, NReq=96071382.
 Requested convergence on RMS density matrix=1.00D-08 within 128 cycles.
 Requested convergence on MAX density matrix=1.00D-06.
 Requested convergence on             energy=1.00D-06.
 No special actions if energy rises.
 SCF Done:  E(RHF) =  -909.125064462     A.U. after   11 cycles
            NFock= 11  Conv=0.51D-08     -V/T= 2.0018

 **********************************************************************

            Population analysis using the SCF density.

 **********************************************************************

 Orbital symmetries:
       Occupied  (A) (A) (A) (A) (A) (A) (A) (A) (A) (A) (A) (A)
                 (A) (A) (A) (A) (A) (A) (A) (A) (A) (A) (A) (A)
                 (A) (A) (A) (A) (A) (A) (A) (A) (A) (A) (A) (A)
                 (A) (A) (A) (A) (A) (A) (A) (A) (A)
       Virtual   (A) (A) (A) (A) (A) (A) (A) (A) (A) (A) (A) (A)
                 (A) (A) (A) (A) (A) (A) (A) (A) (A) (A) (A) (A)
                 (A) (A) (A) (A) (A) (A) (A) (A) (A) (A) (A) (A)
                 (A) (A) (A) (A) (A) (A) (A) (A) (A) (A) (A) (A)
                 (A) (A) (A) (A) (A) (A) (A) (A) (A) (A) (A) (A)
                 (A) (A) (A) (A) (A) (A) (A) (A) (A) (A) (A) (A)
                 (A) (A) (A) (A) (A) (A) (A) (A) (A) (A) (A) (A)
                 (A) (A) (A) (A) (A) (A) (A) (A) (A) (A) (A) (A)
                 (A) (A) (A) (A) (A) (A) (A) (A) (A) (A) (A) (A)
                 (A) (A) (A) (A) (A) (A) (A) (A) (A) (A) (A) (A)
 The electronic state is 1-A.
 Alpha  occ. eigenvalues --  -26.38055 -26.37924 -26.37770 -26.37740 -26.37651
 Alpha  occ. eigenvalues --  -26.37642 -26.37527 -26.37335 -11.54622 -11.54586
 Alpha  occ. eigenvalues --  -11.47795  -1.79142  -1.78110  -1.73192  -1.68483
 Alpha  occ. eigenvalues --   -1.67883  -1.67683  -1.67608  -1.66362  -1.12448
 Alpha  occ. eigenvalues --   -1.02762  -0.95799  -0.90929  -0.88925  -0.87898
 Alpha  occ. eigenvalues --   -0.86686  -0.85740  -0.85664  -0.81586  -0.76185
 Alpha  occ. eigenvalues --   -0.75441  -0.74673  -0.73832  -0.73472  -0.73184
 Alpha  occ. eigenvalues --   -0.72205  -0.70318  -0.70192  -0.68553  -0.68524
 Alpha  occ. eigenvalues --   -0.68273  -0.67373  -0.67279  -0.63200  -0.55899
 Alpha virt. eigenvalues --    0.25440   0.26190   0.38071   0.39290   0.42273
 Alpha virt. eigenvalues --    0.44811   0.46250   0.49412   0.51889   0.55724
 Alpha virt. eigenvalues --    0.64328   0.64964   0.69178   0.69334   0.70630
 Alpha virt. eigenvalues --    0.76502   0.77770   0.85410   0.87427   0.88298
 Alpha virt. eigenvalues --    1.09584   1.11310   1.20745   1.24675   1.26642
 Alpha virt. eigenvalues --    1.30067   1.33544   1.34869   1.35672   1.37316
 Alpha virt. eigenvalues --    1.41772   1.44302   1.51123   1.54534   1.55029
 Alpha virt. eigenvalues --    1.56872   1.57037   1.58886   1.59802   1.62306
 Alpha virt. eigenvalues --    1.62908   1.63962   1.64149   1.64211   1.64861
 Alpha virt. eigenvalues --    1.67172   1.68337   1.70218   1.71514   1.74473
 Alpha virt. eigenvalues --    1.79302   1.84288   1.86164   1.87809   1.88014
 Alpha virt. eigenvalues --    1.95526   1.96848   1.97303   2.00976   2.04578
 Alpha virt. eigenvalues --    2.05216   2.07003   2.07611   2.09731   2.09929
 Alpha virt. eigenvalues --    2.10628   2.16219   2.18960   2.21746   2.26420
 Alpha virt. eigenvalues --    2.29507   2.31191   2.31355   2.31911   2.31938
 Alpha virt. eigenvalues --    2.38042   2.38505   2.41096   2.42375   2.42788
 Alpha virt. eigenvalues --    2.43617   2.47277   2.49363   2.54156   2.63587
 Alpha virt. eigenvalues --    2.65167   2.67683   2.70583   2.71351   2.76950
 Alpha virt. eigenvalues --    2.80941   2.81958   2.94791   3.01099   3.02830
 Alpha virt. eigenvalues --    3.14732   3.16728   3.19061   3.27342   3.28278
 Alpha virt. eigenvalues --    3.29224   3.38368   3.41405   3.42748   3.43028
 Alpha virt. eigenvalues --    3.46168   3.49463   3.49821   3.54302   4.56374
 Alpha virt. eigenvalues --    4.67763   4.74436   4.84178   5.08841   5.23353
 Alpha virt. eigenvalues --    5.67734   5.69654   6.04544   6.18580   6.31335
          Condensed to atoms (all electrons):
               1          2          3          4          5          6
     1  C    3.778797   0.366321  -0.060558   0.003374   0.296564   0.284410
     2  C    0.366321   4.444828   0.367277  -0.039217  -0.026659  -0.037023
     3  C   -0.060558   0.367277   3.779199   0.281131   0.001535   0.003068
     4  F    0.003374  -0.039217   0.281131   9.160364  -0.000002  -0.000035
     5  F    0.296564  -0.026659   0.001535  -0.000002   9.138366  -0.035386
     6  F    0.284410  -0.037023   0.003068  -0.000035  -0.035386   9.153768
     7  F   -0.018983   0.211798  -0.020043   0.001247   0.000589   0.000359
     8  F   -0.019184   0.219665  -0.018087   0.000358   0.000444   0.001150
     9  F    0.001501  -0.025519   0.297780  -0.035081  -0.000001  -0.000001
    10  F    0.009121  -0.040462   0.282115  -0.033364   0.000000  -0.000198
    11  F    0.281809  -0.041660   0.009268  -0.000380  -0.035131  -0.033884
               7          8          9         10         11
     1  C   -0.018983  -0.019184   0.001501   0.009121   0.281809
     2  C    0.211798   0.219665  -0.025519  -0.040462  -0.041660
     3  C   -0.020043  -0.018087   0.297780   0.282115   0.009268
     4  F    0.001247   0.000358  -0.035081  -0.033364  -0.000380
     5  F    0.000589   0.000444  -0.000001   0.000000  -0.035131
     6  F    0.000359   0.001150  -0.000001  -0.000198  -0.033884
     7  F    9.216441  -0.028067   0.000448   0.000372   0.000932
     8  F   -0.028067   9.204634   0.000580   0.000752   0.000363
     9  F    0.000448   0.000580   9.135321  -0.035557  -0.000000
    10  F    0.000372   0.000752  -0.035557   9.153757  -0.000460
    11  F    0.000932   0.000363  -0.000000  -0.000460   9.155743
 Mulliken charges:
               1
     1  C    1.076827
     2  C    0.600650
     3  C    1.077314
     4  F   -0.338396
     5  F   -0.340318
     6  F   -0.336228
     7  F   -0.365093
     8  F   -0.362608
     9  F   -0.339471
    10  F   -0.336077
    11  F   -0.336599
 Sum of Mulliken charges =  -0.00000
 Mulliken charges with hydrogens summed into heavy atoms:
               1
     1  C    1.076827
     2  C    0.600650
     3  C    1.077314
     4  F   -0.338396
     5  F   -0.340318
     6  F   -0.336228
     7  F   -0.365093
     8  F   -0.362608
     9  F   -0.339471
    10  F   -0.336077
    11  F   -0.336599
 Electronic spatial extent (au):  <R**2>=           1278.8028
 Charge=              0.0000 electrons
 Dipole moment (field-independent basis, Debye):
    X=              0.0202    Y=             -0.1299    Z=              0.0769  Tot=              0.1523
 Quadrupole moment (field-independent basis, Debye-Ang):
   XX=            -56.7803   YY=            -57.1789   ZZ=            -57.2581
   XY=              0.0178   XZ=              0.0667   YZ=              0.0143
 Traceless Quadrupole moment (field-independent basis, Debye-Ang):
   XX=              0.2921   YY=             -0.1065   ZZ=             -0.1857
   XY=              0.0178   XZ=              0.0667   YZ=              0.0143
 Octapole moment (field-independent basis, Debye-Ang**2):
  XXX=             -0.0576  YYY=             -1.5498  ZZZ=             -0.1257  XYY=              0.0242
  XXY=             -1.9559  XXZ=             -0.0940  XZZ=              0.0142  YZZ=              0.4055
  YYZ=             -0.0841  XYZ=             -0.3833
 Hexadecapole moment (field-independent basis, Debye-Ang**3):
 XXXX=           -669.0147 YYYY=           -282.4534 ZZZZ=           -227.1898 XXXY=             -0.0767
 XXXZ=             -0.8019 YYYX=             -0.0191 YYYZ=             -0.1319 ZZZX=              1.2036
 ZZZY=              0.0495 XXYY=           -157.7752 XXZZ=           -150.1491 YYZZ=            -88.2056
 XXYZ=              0.1933 YYXZ=             -0.5963 ZZXY=              0.0181
 N-N= 8.081090946639D+02 E-N=-3.782675400067D+03  KE= 9.074900752767D+02
 Calling FoFJK, ICntrl=      2127 FMM=F ISym2X=0 I1Cent= 0 IOpClX= 0 NMat=1 NMatS=1 NMatT=0.
 ***** Axes restored to original set *****
 -------------------------------------------------------------------
 Center     Atomic                   Forces (Hartrees/Bohr)
 Number     Number              X              Y              Z
 -------------------------------------------------------------------
      1        6          -0.000244633    0.001141563    0.003070547
      2        6           0.000469886    0.000337033   -0.000923794
      3        6          -0.000270279    0.002422290   -0.002878897
      4        9           0.002920743   -0.001415646   -0.000406661
      5        9          -0.003205365    0.002509300   -0.001339941
      6        9          -0.000576489   -0.002238464    0.002022462
      7        9          -0.000191050    0.002087039    0.000644171
      8        9           0.000094595   -0.000696872    0.000530835
      9        9          -0.000352471    0.002639564    0.002004977
     10        9          -0.002203267   -0.005012762    0.000963260
     11        9           0.003558330   -0.001773046   -0.003686958
 -------------------------------------------------------------------
 Cartesian Forces:  Max     0.005012762 RMS     0.002072268

 GradGradGradGradGradGradGradGradGradGradGradGradGradGradGradGradGradGrad
 Berny optimization.
 Search for a local minimum.
 Step number   1 out of a maximum of    2
 All quantities printed in internal units (Hartrees-Bohrs-Radians)
 Second derivative matrix not updated -- first step.
 ITU=  0
     Eigenvalues ---    0.00203   0.00313   0.01381   0.03393   0.05340
     Eigenvalues ---    0.05375   0.05416   0.06895   0.08575   0.09254
     Eigenvalues ---    0.12557   0.14631   0.15267   0.15907   0.18482
     Eigenvalues ---    0.21721   0.24723   0.37013   0.66127   1.02666
     Eigenvalues ---    1.22691   1.30578   1.48995   1.64911   1.65929
     Eigenvalues ---    1.70786   1.75127
 Quadratic step=3.498D-01 exceeds max=3.000D-01 adjusted using Lamda=-4.127D-04.
 Angle between NR and scaled steps=   3.09 degrees.
 Angle between quadratic step and forces=  77.73 degrees.
 Linear search not attempted -- first point.
 B after Tr=    -0.000473    0.000368    0.000248
         Rot=    1.000000   -0.000017   -0.000057   -0.000086 Ang=  -0.01 deg.
 Variable       Old X    -DE/DX   Delta X   Delta X   Delta X     New X
                                 (Linear)    (Quad)   (Total)
    X1       -5.07445  -0.00024   0.00000   0.00880   0.00815  -5.06629
    Y1        0.91996   0.00114   0.00000   0.01069   0.01019   0.93015
    Z1       -0.07373   0.00307   0.00000  -0.01610  -0.01525  -0.08897
    X2       -3.87744   0.00047   0.00000   0.02804   0.02741  -3.85003
    Y2        2.31535   0.00034   0.00000   0.01807   0.01771   2.33306
    Z2        2.16551  -0.00092   0.00000  -0.02960  -0.02883   2.13668
    X3       -1.67146  -0.00027   0.00000  -0.00705  -0.00729  -1.67875
    Y3        0.95631   0.00242   0.00000  -0.01088  -0.01091   0.94540
    Z3        3.45734  -0.00288   0.00000   0.00422   0.00469   3.46203
    X4        0.24744   0.00292   0.00000   0.02797   0.02759   0.27503
    Y4        0.84173  -0.00142   0.00000  -0.09911  -0.09876   0.74298
    Z4        1.89726  -0.00041   0.00000   0.04741   0.04765   1.94491
    X5       -6.67870  -0.00321   0.00000  -0.11114  -0.11215  -6.79085
    Y5        2.43120   0.00251   0.00000  -0.03892  -0.03968   2.39152
    Z5       -1.18999  -0.00134   0.00000   0.07479   0.07589  -1.11411
    X6       -6.27813  -0.00058   0.00000   0.13040   0.13021  -6.14792
    Y6       -1.10254  -0.00224   0.00000  -0.05479  -0.05551  -1.15805
    Z6        0.68680   0.00202   0.00000   0.01596   0.01687   0.70367
    X7       -2.99854  -0.00019   0.00000   0.03406   0.03295  -2.96559
    Y7        4.49901   0.00209   0.00000   0.02639   0.02621   4.52521
    Z7        1.30456   0.00064   0.00000  -0.00965  -0.00892   1.29564
    X8       -5.66786   0.00009   0.00000   0.02608   0.02557  -5.64228
    Y8        2.75363  -0.00070   0.00000   0.01363   0.01289   2.76653
    Z8        3.86035   0.00053   0.00000  -0.03006  -0.02908   3.83127
    X9       -0.98718  -0.00035   0.00000  -0.02358  -0.02382  -1.01099
    Y9        2.20865   0.00264   0.00000   0.02383   0.02384   2.23249
    Z9        5.47474   0.00200   0.00000  -0.00630  -0.00586   5.46888
   X10       -2.31218  -0.00220   0.00000  -0.08498  -0.08475  -2.39693
   Y10       -1.33607  -0.00501   0.00000   0.01267   0.01248  -1.32359
   Z10        4.12038   0.00096   0.00000   0.04160   0.04208   4.16246
   X11       -3.33617   0.00356   0.00000  -0.02314  -0.02388  -3.36005
   Y11        0.25731  -0.00177   0.00000   0.10169   0.10154   0.35885
   Z11       -1.70070  -0.00369   0.00000  -0.09988  -0.09924  -1.79994
         Item               Value     Threshold  Converged?
 Maximum Force            0.005013     0.000450     NO 
 RMS     Force            0.002072     0.000300     NO 
 Maximum Displacement     0.130209     0.001800     NO 
 RMS     Displacement     0.052233     0.001200     NO 
 Predicted change in Energy=-3.980118D-04
 GradGradGradGradGradGradGradGradGradGradGradGradGradGradGradGradGradGrad

 1\1\GINC-MU01\Force\RHF\6-31G(d)\C3F8\LBL8\15-Sep-2025\0\\# hf/6-31G(d
 ) force\\Force calculation\\0,1\C,-2.68528173,0.48682431,-0.03901461\C
 ,-2.05185096,1.22522924,1.1459388\C,-0.8844976,0.50605664,1.82954448\F
 ,0.1309371,0.44542684,1.00398737\F,-3.53421436,1.28653489,-0.62971815\
 F,-3.32224523,-0.58344059,0.36343754\F,-1.58675701,2.38077152,0.690343
 84\F,-2.99929986,1.45716069,2.04281007\F,-0.52239272,1.16876742,2.8971
 0717\F,-1.22355252,-0.707017,2.180413\F,-1.76542444,0.13616453,-0.8999
 7016\\Version=ES64L-G16RevA.03\State=1-A\HF=-909.1250645\RMSD=5.116e-0
 9\RMSF=2.072e-03\Dipole=0.0026892,-0.059181,0.0090671\Quadrupole=-0.00
 59462,-0.0994171,0.1053633,-0.0272658,0.1658516,0.015312\PG=C01 [X(C3F
 8)]\\@


 MOST BUREAUCRACIES FUNCTION LIKE A SEPTIC TANK.
 THE LARGE CHUNKS RISE TO THE TOP.
 Job cpu time:       0 days  0 hours  0 minutes  7.7 seconds.
 Elapsed time:       0 days  0 hours  0 minutes  7.7 seconds.
 File lengths (MBytes):  RWF=     28 Int=      0 D2E=      0 Chk=      4 Scr=      2
 Normal termination of Gaussian 16 at Mon Sep 15 21:54:33 2025.
