 Entering Gaussian System, Link 0=g16
 Input=gauss.gjf
 Output=gauss.log
 Initial command:
 /software/Applications/gaussian/G16.A03.AVX/g16/l1.exe "/home/lbl8/code/hartree-fock_geomopt-rev-3/example/Gau-3466383.inp" -scrdir="/home/lbl8/code/hartree-fock_geomopt-rev-3/example/"
 Entering Link 1 = /software/Applications/gaussian/G16.A03.AVX/g16/l1.exe PID=   3466385.
  
 Copyright (c) 1988,1990,1992,1993,1995,1998,2003,2009,2016,
            Gaussian, Inc.  All Rights Reserved.
  
 This is part of the Gaussian(R) 16 program.  It is based on
 the Gaussian(R) 09 system (copyright 2009, Gaussian, Inc.),
 the Gaussian(R) 03 system (copyright 2003, Gaussian, Inc.),
 the Gaussian(R) 98 system (copyright 1998, Gaussian, Inc.),
 the Gaussian(R) 94 system (copyright 1995, Gaussian, Inc.),
 the Gaussian 92(TM) system (copyright 1992, Gaussian, Inc.),
 the Gaussian 90(TM) system (copyright 1990, Gaussian, Inc.),
 the Gaussian 88(TM) system (copyright 1988, Gaussian, Inc.),
 the Gaussian 86(TM) system (copyright 1986, Carnegie Mellon
 University), and the Gaussian 82(TM) system (copyright 1983,
 Carnegie Mellon University). Gaussian is a federally registered
 trademark of Gaussian, Inc.
  
 This software contains proprietary and confidential information,
 including trade secrets, belonging to Gaussian, Inc.
  
 This software is provided under written license and may be
 used, copied, transmitted, or stored only in accord with that
 written license.
  
 The following legend is applicable only to US Government
 contracts under FAR:
  
                    RESTRICTED RIGHTS LEGEND
  
 Use, reproduction and disclosure by the US Government is
 subject to restrictions as set forth in subparagraphs (a)
 and (c) of the Commercial Computer Software - Restricted
 Rights clause in FAR 52.227-19.
  
 Gaussian, Inc.
 340 Quinnipiac St., Bldg. 40, Wallingford CT 06492
  
  
 ---------------------------------------------------------------
 Warning -- This program may not be used in any manner that
 competes with the business of Gaussian, Inc. or will provide
 assistance to any competitor of Gaussian, Inc.  The licensee
 of this program is prohibited from giving any competitor of
 Gaussian, Inc. access to this program.  By using this program,
 the user acknowledges that Gaussian, Inc. is engaged in the
 business of creating and licensing software in the field of
 computational chemistry and represents and warrants to the
 licensee that it is not a competitor of Gaussian, Inc. and that
 it will not use this program in any manner prohibited above.
 ---------------------------------------------------------------
  

 Cite this work as:
 Gaussian 16, Revision A.03,
 M. J. Frisch, G. W. Trucks, H. B. Schlegel, G. E. Scuseria, 
 M. A. Robb, J. R. Cheeseman, G. Scalmani, V. Barone, 
 G. A. Petersson, H. Nakatsuji, X. Li, M. Caricato, A. V. Marenich, 
 J. Bloino, B. G. Janesko, R. Gomperts, B. Mennucci, H. P. Hratchian, 
 J. V. Ortiz, A. F. Izmaylov, J. L. Sonnenberg, D. Williams-Young, 
 F. Ding, F. Lipparini, F. Egidi, J. Goings, B. Peng, A. Petrone, 
 T. Henderson, D. Ranasinghe, V. G. Zakrzewski, J. Gao, N. Rega, 
 G. Zheng, W. Liang, M. Hada, M. Ehara, K. Toyota, R. Fukuda, 
 J. Hasegawa, M. Ishida, T. Nakajima, Y. Honda, O. Kitao, H. Nakai, 
 T. Vreven, K. Throssell, J. A. Montgomery, Jr., J. E. Peralta, 
 F. Ogliaro, M. J. Bearpark, J. J. Heyd, E. N. Brothers, K. N. Kudin, 
 V. N. Staroverov, T. A. Keith, R. Kobayashi, J. Normand, 
 K. Raghavachari, A. P. Rendell, J. C. Burant, S. S. Iyengar, 
 J. Tomasi, M. Cossi, J. M. Millam, M. Klene, C. Adamo, R. Cammi, 
 J. W. Ochterski, R. L. Martin, K. Morokuma, O. Farkas, 
 J. B. Foresman, and D. J. Fox, Gaussian, Inc., Wallingford CT, 2016.
 
 ******************************************
 Gaussian 16:  ES64L-G16RevA.03 25-Dec-2016
                10-Sep-2025 
 ******************************************
 %chk=gauss.chk
 -------------------
 # hf/6-31G(d) force
 -------------------
 1/10=7,30=1,38=1/1,3;
 2/12=2,17=6,18=5,40=1/2;
 3/5=1,6=6,7=1,11=9,25=1,30=1,71=1/1,2,3;
 4//1;
 5/5=2,38=5/2;
 6/7=2,8=2,9=2,10=2,28=1/1;
 7/29=1/1,2,3,16;
 1/10=7,30=1/3;
 99//99;
 -----------------
 Force calculation
 -----------------
 Symbolic Z-matrix:
 Charge =  0 Multiplicity = 1
 C                    -2.84029   1.8275    0.01127 
 C                    -1.75671   2.36086   0.92829 
 C                    -1.0126    3.00204   3.89164 
 C                    -0.68196   1.82847   2.97811 
 H                    -2.61836   0.80745  -0.28105 
 H                    -2.91587   2.43663  -0.88439 
 H                    -3.79976   1.83524   0.51606 
 H                    -1.97579   3.38967   1.20538 
 H                    -0.79412   2.36027   0.41755 
 H                    -1.95303   2.82524   4.4024 
 H                    -0.23434   3.12381   4.63945 
 H                    -1.09353   3.93494   3.344 
 H                     0.25712   2.00743   2.45609 
 H                    -0.55678   0.93121   3.57159 
 O                    -1.69656   1.5405    2.0587 
 

 GradGradGradGradGradGradGradGradGradGradGradGradGradGradGradGradGradGrad
 Berny optimization.
 Initialization pass.
 Trust Radius=3.00D-01 FncErr=1.00D-07 GrdErr=1.00D-07 EigMax=2.50D+02 EigMin=1.00D-04
 Number of steps in this run=      2 maximum allowed number of steps=      2.
 GradGradGradGradGradGradGradGradGradGradGradGradGradGradGradGradGradGrad

                          Input orientation:                          
 ---------------------------------------------------------------------
 Center     Atomic      Atomic             Coordinates (Angstroms)
 Number     Number       Type             X           Y           Z
 ---------------------------------------------------------------------
      1          6           0       -2.840289    1.827504    0.011270
      2          6           0       -1.756712    2.360855    0.928291
      3          6           0       -1.012596    3.002040    3.891642
      4          6           0       -0.681957    1.828472    2.978108
      5          1           0       -2.618358    0.807452   -0.281046
      6          1           0       -2.915872    2.436627   -0.884393
      7          1           0       -3.799760    1.835236    0.516061
      8          1           0       -1.975792    3.389674    1.205375
      9          1           0       -0.794121    2.360269    0.417554
     10          1           0       -1.953027    2.825242    4.402401
     11          1           0       -0.234336    3.123807    4.639447
     12          1           0       -1.093533    3.934940    3.344004
     13          1           0        0.257123    2.007427    2.456093
     14          1           0       -0.556776    0.931210    3.571591
     15          8           0       -1.696557    1.540496    2.058696
 ---------------------------------------------------------------------
                    Distance matrix (angstroms):
                    1          2          3          4          5
     1  C    0.000000
     2  C    1.516420   0.000000
     3  C    4.447166   3.121903   0.000000
     4  C    3.668859   2.374927   1.523526   0.000000
     5  H    1.084071   2.148951   4.980564   3.926094   0.000000
     6  H    1.085797   2.152955   5.172298   4.503237   1.762598
     7  H    1.084185   2.149478   4.530371   3.972709   1.757109
     8  H    2.147933   1.087768   2.879937   2.693315   3.047985
     9  H    2.153070   1.089695   3.539617   2.617599   2.495421
    10  H    4.589635   3.510504   1.084685   2.153552   5.142842
    11  H    5.467304   4.083186   1.086153   2.153673   5.938040
    12  H    4.312720   2.958584   1.084787   2.177266   5.024665
    13  H    3.950125   2.552375   2.159223   1.089217   4.147320
    14  H    4.323616   3.235856   2.144421   1.083037   4.371298
    15  O    2.362720   1.398007   2.442049   1.399165   2.619440
                    6          7          8          9         10
     6  H    0.000000
     7  H    1.761873   0.000000
     8  H    2.481769   2.493650   0.000000
     9  H    2.490527   3.052741   1.754047   0.000000
    10  H    5.387790   4.415221   3.246549   4.175915   0.000000
    11  H    6.178646   5.601338   3.859561   4.326746   1.760464
    12  H    4.842024   4.441811   2.376852   3.336666   1.757944
    13  H    4.627197   4.500186   2.908747   2.320614   3.056419
    14  H    5.261882   4.546479   3.695487   3.470805   2.495420
    15  O    3.309313   2.624892   2.055623   2.044447   2.685015
                   11         12         13         14         15
    11  H    0.000000
    12  H    1.753377   0.000000
    13  H    2.500974   2.515545   0.000000
    14  H    2.460034   3.059788   1.750716   0.000000
    15  O    3.362327   2.783705   2.047636   1.989769   0.000000
 Stoichiometry    C4H10O
 Framework group  C1[X(C4H10O)]
 Deg. of freedom    39
 Full point group                 C1      NOp   1
 Largest Abelian subgroup         C1      NOp   1
 Largest concise Abelian subgroup C1      NOp   1
                         Standard orientation:                         
 ---------------------------------------------------------------------
 Center     Atomic      Atomic             Coordinates (Angstroms)
 Number     Number       Type             X           Y           Z
 ---------------------------------------------------------------------
      1          6           0        2.328905    0.145844   -0.198906
      2          6           0        0.952874    0.253513    0.429168
      3          6           0       -2.095014    0.597578   -0.152442
      4          6           0       -1.239817   -0.621307    0.170183
      5          1           0        2.658893   -0.886732   -0.209059
      6          1           0        3.050075    0.735249    0.359189
      7          1           0        2.306462    0.505486   -1.221458
      8          1           0        0.633590    1.293124    0.451688
      9          1           0        0.977988   -0.100646    1.459399
     10          1           0       -2.100313    0.778467   -1.221925
     11          1           0       -3.118289    0.432092    0.171983
     12          1           0       -1.732325    1.492575    0.341725
     13          1           0       -1.224360   -0.799761    1.244571
     14          1           0       -1.668411   -1.498946   -0.297819
     15          8           0        0.066876   -0.525585   -0.320789
 ---------------------------------------------------------------------
 Rotational constants (GHZ):          14.1052480           2.4746087           2.3443578
 Standard basis: 6-31G(d) (6D, 7F)
 There are    95 symmetry adapted cartesian basis functions of A   symmetry.
 There are    95 symmetry adapted basis functions of A   symmetry.
    95 basis functions,   180 primitive gaussians,    95 cartesian basis functions
    21 alpha electrons       21 beta electrons
       nuclear repulsion energy       192.5523022695 Hartrees.
 NAtoms=   15 NActive=   15 NUniq=   15 SFac= 1.00D+00 NAtFMM=   60 NAOKFM=F Big=F
 Integral buffers will be    131072 words long.
 Raffenetti 1 integral format.
 Two-electron integral symmetry is turned on.
 One-electron integrals computed using PRISM.
 NBasis=    95 RedAO= T EigKep=  4.86D-03  NBF=    95
 NBsUse=    95 1.00D-06 EigRej= -1.00D+00 NBFU=    95
 ExpMin= 1.61D-01 ExpMax= 5.48D+03 ExpMxC= 8.25D+02 IAcc=3 IRadAn=         5 AccDes= 0.00D+00
 Harris functional with IExCor=  205 and IRadAn=       5 diagonalized for initial guess.
 HarFok:  IExCor=  205 AccDes= 0.00D+00 IRadAn=         5 IDoV= 1 UseB2=F ITyADJ=14
 ICtDFT=  3500011 ScaDFX=  1.000000  1.000000  1.000000  1.000000
 FoFCou: FMM=F IPFlag=           0 FMFlag=      100000 FMFlg1=           0
         NFxFlg=           0 DoJE=T BraDBF=F KetDBF=T FulRan=T
         wScrn=  0.000000 ICntrl=       500 IOpCl=  0 I1Cent=   200000004 NGrid=           0
         NMat0=    1 NMatS0=      1 NMatT0=    0 NMatD0=    1 NMtDS0=    0 NMtDT0=    0
 Petite list used in FoFCou.
 Keep R1 ints in memory in canonical form, NReq=11281913.
 Requested convergence on RMS density matrix=1.00D-08 within 128 cycles.
 Requested convergence on MAX density matrix=1.00D-06.
 Requested convergence on             energy=1.00D-06.
 No special actions if energy rises.
 SCF Done:  E(RHF) =  -232.142233004     A.U. after   12 cycles
            NFock= 12  Conv=0.35D-08     -V/T= 2.0009

 **********************************************************************

            Population analysis using the SCF density.

 **********************************************************************

 Orbital symmetries:
       Occupied  (A) (A) (A) (A) (A) (A) (A) (A) (A) (A) (A) (A)
                 (A) (A) (A) (A) (A) (A) (A) (A) (A)
       Virtual   (A) (A) (A) (A) (A) (A) (A) (A) (A) (A) (A) (A)
                 (A) (A) (A) (A) (A) (A) (A) (A) (A) (A) (A) (A)
                 (A) (A) (A) (A) (A) (A) (A) (A) (A) (A) (A) (A)
                 (A) (A) (A) (A) (A) (A) (A) (A) (A) (A) (A) (A)
                 (A) (A) (A) (A) (A) (A) (A) (A) (A) (A) (A) (A)
                 (A) (A) (A) (A) (A) (A) (A) (A) (A) (A) (A) (A)
                 (A) (A)
 The electronic state is 1-A.
 Alpha  occ. eigenvalues --  -20.55005 -11.26824 -11.26773 -11.21087 -11.20836
 Alpha  occ. eigenvalues --   -1.37471  -1.04068  -0.98613  -0.86234  -0.81261
 Alpha  occ. eigenvalues --   -0.67249  -0.64711  -0.64390  -0.57574  -0.54860
 Alpha  occ. eigenvalues --   -0.54430  -0.52382  -0.50251  -0.48709  -0.45647
 Alpha  occ. eigenvalues --   -0.40784
 Alpha virt. eigenvalues --    0.23509   0.26142   0.28104   0.29364   0.31562
 Alpha virt. eigenvalues --    0.32150   0.32778   0.33970   0.34489   0.36227
 Alpha virt. eigenvalues --    0.37969   0.41954   0.42786   0.46038   0.69796
 Alpha virt. eigenvalues --    0.73608   0.75521   0.76627   0.77400   0.79377
 Alpha virt. eigenvalues --    0.83828   0.87789   0.91492   0.94537   0.97298
 Alpha virt. eigenvalues --    1.06114   1.10759   1.13210   1.14103   1.16934
 Alpha virt. eigenvalues --    1.18107   1.19082   1.19819   1.21618   1.22814
 Alpha virt. eigenvalues --    1.25129   1.27149   1.31953   1.40445   1.43960
 Alpha virt. eigenvalues --    1.56540   1.63865   1.70042   1.74085   1.75370
 Alpha virt. eigenvalues --    1.86154   1.99469   2.02598   2.08555   2.18673
 Alpha virt. eigenvalues --    2.22884   2.26909   2.28352   2.32798   2.43692
 Alpha virt. eigenvalues --    2.44409   2.52182   2.55510   2.58479   2.64966
 Alpha virt. eigenvalues --    2.65711   2.68913   2.76625   2.79565   2.85785
 Alpha virt. eigenvalues --    3.00253   3.05135   3.20651   3.33987   4.37643
 Alpha virt. eigenvalues --    4.62000   4.62195   4.82167   4.88771
          Condensed to atoms (all electrons):
               1          2          3          4          5          6
     1  C    5.094137   0.365984  -0.000152   0.004681   0.389693   0.383163
     2  C    0.365984   4.770638  -0.004786  -0.045754  -0.035334  -0.037237
     3  C   -0.000152  -0.004786   5.162958   0.341754   0.000011   0.000008
     4  C    0.004681  -0.045754   0.341754   4.764452  -0.000084  -0.000122
     5  H    0.389693  -0.035334   0.000011  -0.000084   0.524057  -0.025418
     6  H    0.383163  -0.037237   0.000008  -0.000122  -0.025418   0.548398
     7  H    0.390655  -0.035250  -0.000006  -0.000194  -0.027551  -0.025645
     8  H   -0.044193   0.396421   0.002462  -0.000950   0.004849   0.000082
     9  H   -0.040482   0.397670  -0.000513  -0.008071  -0.005162  -0.000331
    10  H   -0.000045  -0.000088   0.388427  -0.035173   0.000001   0.000001
    11  H    0.000003   0.000078   0.378166  -0.033369  -0.000000  -0.000000
    12  H    0.000025   0.000973   0.390278  -0.032536  -0.000002   0.000001
    13  H   -0.000181  -0.008988  -0.055762   0.397803  -0.000011   0.000012
    14  H   -0.000108   0.005252  -0.048771   0.415277  -0.000016   0.000001
    15  O   -0.056189   0.209521  -0.051880   0.215115   0.002012   0.002964
               7          8          9         10         11         12
     1  C    0.390655  -0.044193  -0.040482  -0.000045   0.000003   0.000025
     2  C   -0.035250   0.396421   0.397670  -0.000088   0.000078   0.000973
     3  C   -0.000006   0.002462  -0.000513   0.388427   0.378166   0.390278
     4  C   -0.000194  -0.000950  -0.008071  -0.035173  -0.033369  -0.032536
     5  H   -0.027551   0.004849  -0.005162   0.000001  -0.000000  -0.000002
     6  H   -0.025645   0.000082  -0.000331   0.000001  -0.000000   0.000001
     7  H    0.523741  -0.005153   0.004729   0.000009   0.000000   0.000005
     8  H   -0.005153   0.607113  -0.052174   0.000065  -0.000190  -0.001101
     9  H    0.004729  -0.052174   0.602844   0.000062   0.000038   0.000083
    10  H    0.000009   0.000065   0.000062   0.523416  -0.024779  -0.028310
    11  H    0.000000  -0.000190   0.000038  -0.024779   0.547363  -0.027492
    12  H    0.000005  -0.001101   0.000083  -0.028310  -0.027492   0.537382
    13  H    0.000024  -0.000896   0.008909   0.004699   0.000914  -0.003815
    14  H    0.000006  -0.000328   0.000027  -0.003779  -0.000863   0.003896
    15  O    0.001480  -0.043566  -0.042835   0.001354   0.003020  -0.000544
              13         14         15
     1  C   -0.000181  -0.000108  -0.056189
     2  C   -0.008988   0.005252   0.209521
     3  C   -0.055762  -0.048771  -0.051880
     4  C    0.397803   0.415277   0.215115
     5  H   -0.000011  -0.000016   0.002012
     6  H    0.000012   0.000001   0.002964
     7  H    0.000024   0.000006   0.001480
     8  H   -0.000896  -0.000328  -0.043566
     9  H    0.008909   0.000027  -0.042835
    10  H    0.004699  -0.003779   0.001354
    11  H    0.000914  -0.000863   0.003020
    12  H   -0.003815   0.003896  -0.000544
    13  H    0.595091  -0.034369  -0.039630
    14  H   -0.034369   0.532647  -0.038526
    15  O   -0.039630  -0.038526   8.457850
 Mulliken charges:
               1
     1  C   -0.486991
     2  C    0.020899
     3  C   -0.502194
     4  C    0.017169
     5  H    0.172956
     6  H    0.154124
     7  H    0.173151
     8  H    0.137560
     9  H    0.135206
    10  H    0.174140
    11  H    0.157111
    12  H    0.161158
    13  H    0.136202
    14  H    0.169654
    15  O   -0.620145
 Sum of Mulliken charges =  -0.00000
 Mulliken charges with hydrogens summed into heavy atoms:
               1
     1  C    0.013241
     2  C    0.293665
     3  C   -0.009785
     4  C    0.323025
    15  O   -0.620145
 Electronic spatial extent (au):  <R**2>=            587.7275
 Charge=             -0.0000 electrons
 Dipole moment (field-independent basis, Debye):
    X=             -0.4078    Y=              0.6476    Z=              1.0871  Tot=              1.3295
 Quadrupole moment (field-independent basis, Debye-Ang):
   XX=            -31.0630   YY=            -33.5272   ZZ=            -33.4893
   XY=              1.2744   XZ=              0.4012   YZ=             -0.4717
 Traceless Quadrupole moment (field-independent basis, Debye-Ang):
   XX=              1.6302   YY=             -0.8340   ZZ=             -0.7962
   XY=              1.2744   XZ=              0.4012   YZ=             -0.4717
 Octapole moment (field-independent basis, Debye-Ang**2):
  XXX=             -1.2477  YYY=             -2.5385  ZZZ=             -1.4695  XYY=             -0.1458
  XXY=             -2.7687  XXZ=              0.0816  XZZ=              0.0268  YZZ=             -0.3074
  YYZ=             -0.0427  XYZ=             -0.1816
 Hexadecapole moment (field-independent basis, Debye-Ang**3):
 XXXX=           -615.2626 YYYY=           -107.4432 ZZZZ=            -75.3754 XXXY=              5.2589
 XXXZ=              0.5139 YYYX=              1.7716 YYYZ=              2.2318 ZZZX=              0.6083
 ZZZY=             -1.2756 XXYY=           -119.6836 XXZZ=           -115.1077 YYZZ=            -31.0769
 XXYZ=              1.5346 YYXZ=              0.8254 ZZXY=              1.1294
 N-N= 1.925523022695D+02 E-N=-9.281392815661D+02  KE= 2.319333754176D+02
 Calling FoFJK, ICntrl=      2127 FMM=F ISym2X=0 I1Cent= 0 IOpClX= 0 NMat=1 NMatS=1 NMatT=0.
 ***** Axes restored to original set *****
 -------------------------------------------------------------------
 Center     Atomic                   Forces (Hartrees/Bohr)
 Number     Number              X              Y              Z
 -------------------------------------------------------------------
      1        6           0.000015052    0.000004939   -0.000026989
      2        6           0.000016130   -0.000016790   -0.000004860
      3        6          -0.000039210   -0.000022512    0.000044884
      4        6          -0.000000660   -0.000009494    0.000010184
      5        1          -0.000033328   -0.000025771   -0.000020154
      6        1          -0.000021225   -0.000009421    0.000035288
      7        1           0.000003479    0.000004760   -0.000014363
      8        1           0.000006500    0.000010708   -0.000005084
      9        1           0.000006973    0.000028779    0.000012694
     10        1           0.000007191    0.000038943   -0.000059773
     11        1           0.000020113    0.000044814   -0.000013511
     12        1           0.000007124   -0.000035472    0.000045417
     13        1           0.000004731    0.000005245   -0.000005497
     14        1           0.000007468   -0.000020103   -0.000013500
     15        8          -0.000000338    0.000001375    0.000015264
 -------------------------------------------------------------------
 Cartesian Forces:  Max     0.000059773 RMS     0.000022750

 GradGradGradGradGradGradGradGradGradGradGradGradGradGradGradGradGradGrad
 Berny optimization.
 Search for a local minimum.
 Step number   1 out of a maximum of    2
 All quantities printed in internal units (Hartrees-Bohrs-Radians)
 Second derivative matrix not updated -- first step.
 ITU=  0
     Eigenvalues ---    0.00156   0.00280   0.00341   0.00668   0.01168
     Eigenvalues ---    0.01911   0.03509   0.04255   0.04728   0.05168
     Eigenvalues ---    0.05252   0.06035   0.07473   0.07626   0.09168
     Eigenvalues ---    0.09771   0.12322   0.13259   0.13528   0.13810
     Eigenvalues ---    0.14405   0.15346   0.16354   0.20100   0.22208
     Eigenvalues ---    0.29870   0.32154   0.53198   0.58378   0.77810
     Eigenvalues ---    0.79143   0.85536   0.88748   0.96425   1.00228
     Eigenvalues ---    1.02774   1.04072   1.14401   1.32786
 Angle between quadratic step and forces=  70.41 degrees.
 Linear search not attempted -- first point.
 B after Tr=     0.000226    0.000035   -0.000049
         Rot=    1.000000   -0.000004   -0.000003   -0.000016 Ang=  -0.00 deg.
 Variable       Old X    -DE/DX   Delta X   Delta X   Delta X     New X
                                 (Linear)    (Quad)   (Total)
    X1       -5.36737   0.00002   0.00000  -0.00030  -0.00018  -5.36755
    Y1        3.45348   0.00000   0.00000   0.00008  -0.00005   3.45343
    Z1        0.02130  -0.00003   0.00000   0.00023   0.00024   0.02153
    X2       -3.31970   0.00002   0.00000   0.00042   0.00052  -3.31919
    Y2        4.46137  -0.00002   0.00000  -0.00035  -0.00043   4.46094
    Z2        1.75422  -0.00000   0.00000  -0.00010  -0.00010   1.75412
    X3       -1.91353  -0.00004   0.00000  -0.00039  -0.00030  -1.91383
    Y3        5.67303  -0.00002   0.00000   0.00003  -0.00005   5.67298
    Z3        7.35414   0.00004   0.00000  -0.00014  -0.00013   7.35401
    X4       -1.28871  -0.00000   0.00000   0.00042   0.00056  -1.28815
    Y4        3.45531  -0.00001   0.00000  -0.00013  -0.00018   3.45513
    Z4        5.62781   0.00001   0.00000   0.00019   0.00017   5.62798
    X5       -4.94798  -0.00003   0.00000  -0.00122  -0.00105  -4.94902
    Y5        1.52586  -0.00003   0.00000   0.00018   0.00006   1.52592
    Z5       -0.53110  -0.00002   0.00000  -0.00104  -0.00105  -0.53215
    X6       -5.51020  -0.00002   0.00000  -0.00136  -0.00129  -5.51149
    Y6        4.60456  -0.00001   0.00000   0.00093   0.00080   4.60536
    Z6       -1.67126   0.00004   0.00000   0.00101   0.00102  -1.67024
    X7       -7.18051   0.00000   0.00000   0.00014   0.00026  -7.18025
    Y7        3.46809   0.00000   0.00000  -0.00006  -0.00026   3.46783
    Z7        0.97521  -0.00001   0.00000   0.00100   0.00102   0.97623
    X8       -3.73371   0.00001   0.00000   0.00047   0.00050  -3.73320
    Y8        6.40556   0.00001   0.00000  -0.00041  -0.00051   6.40505
    Z8        2.27783  -0.00001   0.00000   0.00023   0.00025   2.27808
    X9       -1.50067   0.00001   0.00000   0.00032   0.00041  -1.50026
    Y9        4.46026   0.00003   0.00000   0.00023   0.00021   4.46047
    Z9        0.78906   0.00001   0.00000  -0.00030  -0.00030   0.78876
   X10       -3.69069   0.00001   0.00000  -0.00166  -0.00156  -3.69225
   Y10        5.33893   0.00004   0.00000   0.00117   0.00102   5.33995
   Z10        8.31933  -0.00006   0.00000  -0.00234  -0.00233   8.31701
   X11       -0.44283   0.00002   0.00000  -0.00155  -0.00146  -0.44429
   Y11        5.90314   0.00004   0.00000   0.00018   0.00014   5.90328
   Z11        8.76728  -0.00001   0.00000   0.00109   0.00109   8.76838
   X12       -2.06648   0.00001   0.00000   0.00126   0.00129  -2.06519
   Y12        7.43596  -0.00004   0.00000  -0.00005  -0.00013   7.43583
   Z12        6.31925   0.00005   0.00000  -0.00022  -0.00020   6.31905
   X13        0.48589   0.00000   0.00000   0.00054   0.00067   0.48657
   Y13        3.79349   0.00001   0.00000   0.00022   0.00023   3.79372
   Z13        4.64134  -0.00001   0.00000   0.00049   0.00047   4.64181
   X14       -1.05215   0.00001   0.00000   0.00051   0.00071  -1.05144
   Y14        1.75973  -0.00002   0.00000  -0.00026  -0.00031   1.75942
   Z14        6.74933  -0.00001   0.00000   0.00003  -0.00000   6.74933
   X15       -3.20603  -0.00000   0.00000   0.00077   0.00092  -3.20510
   Y15        2.91112   0.00000   0.00000  -0.00044  -0.00054   2.91058
   Z15        3.89037   0.00002   0.00000  -0.00014  -0.00015   3.89022
         Item               Value     Threshold  Converged?
 Maximum Force            0.000060     0.000450     YES
 RMS     Force            0.000023     0.000300     YES
 Maximum Displacement     0.002327     0.001800     NO 
 RMS     Displacement     0.000747     0.001200     YES
 Predicted change in Energy=-1.291468D-07
 GradGradGradGradGradGradGradGradGradGradGradGradGradGradGradGradGradGrad

 1\1\GINC-MU01\Force\RHF\6-31G(d)\C4H10O1\LBL8\10-Sep-2025\0\\# hf/6-31
 G(d) force\\Force calculation\\0,1\C,-2.84028899,1.82750431,0.01127048
 \C,-1.75671209,2.36085509,0.9282912\C,-1.01259627,3.00203986,3.8916424
 8\C,-0.68195659,1.8284715,2.97810775\H,-2.61835803,0.80745202,-0.28104
 641\H,-2.91587227,2.4366272,-0.88439255\H,-3.79976009,1.83523615,0.516
 06071\H,-1.97579175,3.38967411,1.20537508\H,-0.79412079,2.36026898,0.4
 1755445\H,-1.95302732,2.82524239,4.40240137\H,-0.2343356,3.12380727,4.
 63944741\H,-1.09353323,3.93494047,3.34400359\H,0.2571225,2.00742698,2.
 4560931\H,-0.55677592,0.93121016,3.57159055\O,-1.69655735,1.54049645,2
 .05869617\\Version=ES64L-G16RevA.03\State=1-A\HF=-232.142233\RMSD=3.53
 0e-09\RMSF=2.275e-05\Dipole=0.3287782,0.4025077,-0.0590105\Quadrupole=
 0.0544602,-1.1044087,1.0499485,-0.4994508,0.7886577,-0.4214291\PG=C01 
 [X(C4H10O1)]\\@


 IT IS BETTER TO THINK YOU ARE HALF DRY THAN TO KNOW YOU
 ARE ALL WET.  -- SNOOPY
 Job cpu time:       0 days  0 hours  0 minutes  2.4 seconds.
 Elapsed time:       0 days  0 hours  0 minutes  3.1 seconds.
 File lengths (MBytes):  RWF=     22 Int=      0 D2E=      0 Chk=      3 Scr=      2
 Normal termination of Gaussian 16 at Wed Sep 10 14:00:48 2025.
