 Entering Gaussian System, Link 0=g16
 Input=gauss.gjf
 Output=gauss.log
 Initial command:
 /software/Applications/gaussian/G16.A03.AVX/g16/l1.exe "/home/lbl8/code/hartree-fock_geomopt-rev-3/example/Gau-3229342.inp" -scrdir="/home/lbl8/code/hartree-fock_geomopt-rev-3/example/"
 Entering Link 1 = /software/Applications/gaussian/G16.A03.AVX/g16/l1.exe PID=   3229344.
  
 Copyright (c) 1988,1990,1992,1993,1995,1998,2003,2009,2016,
            Gaussian, Inc.  All Rights Reserved.
  
 This is part of the Gaussian(R) 16 program.  It is based on
 the Gaussian(R) 09 system (copyright 2009, Gaussian, Inc.),
 the Gaussian(R) 03 system (copyright 2003, Gaussian, Inc.),
 the Gaussian(R) 98 system (copyright 1998, Gaussian, Inc.),
 the Gaussian(R) 94 system (copyright 1995, Gaussian, Inc.),
 the Gaussian 92(TM) system (copyright 1992, Gaussian, Inc.),
 the Gaussian 90(TM) system (copyright 1990, Gaussian, Inc.),
 the Gaussian 88(TM) system (copyright 1988, Gaussian, Inc.),
 the Gaussian 86(TM) system (copyright 1986, Carnegie Mellon
 University), and the Gaussian 82(TM) system (copyright 1983,
 Carnegie Mellon University). Gaussian is a federally registered
 trademark of Gaussian, Inc.
  
 This software contains proprietary and confidential information,
 including trade secrets, belonging to Gaussian, Inc.
  
 This software is provided under written license and may be
 used, copied, transmitted, or stored only in accord with that
 written license.
  
 The following legend is applicable only to US Government
 contracts under FAR:
  
                    RESTRICTED RIGHTS LEGEND
  
 Use, reproduction and disclosure by the US Government is
 subject to restrictions as set forth in subparagraphs (a)
 and (c) of the Commercial Computer Software - Restricted
 Rights clause in FAR 52.227-19.
  
 Gaussian, Inc.
 340 Quinnipiac St., Bldg. 40, Wallingford CT 06492
  
  
 ---------------------------------------------------------------
 Warning -- This program may not be used in any manner that
 competes with the business of Gaussian, Inc. or will provide
 assistance to any competitor of Gaussian, Inc.  The licensee
 of this program is prohibited from giving any competitor of
 Gaussian, Inc. access to this program.  By using this program,
 the user acknowledges that Gaussian, Inc. is engaged in the
 business of creating and licensing software in the field of
 computational chemistry and represents and warrants to the
 licensee that it is not a competitor of Gaussian, Inc. and that
 it will not use this program in any manner prohibited above.
 ---------------------------------------------------------------
  

 Cite this work as:
 Gaussian 16, Revision A.03,
 M. J. Frisch, G. W. Trucks, H. B. Schlegel, G. E. Scuseria, 
 M. A. Robb, J. R. Cheeseman, G. Scalmani, V. Barone, 
 G. A. Petersson, H. Nakatsuji, X. Li, M. Caricato, A. V. Marenich, 
 J. Bloino, B. G. Janesko, R. Gomperts, B. Mennucci, H. P. Hratchian, 
 J. V. Ortiz, A. F. Izmaylov, J. L. Sonnenberg, D. Williams-Young, 
 F. Ding, F. Lipparini, F. Egidi, J. Goings, B. Peng, A. Petrone, 
 T. Henderson, D. Ranasinghe, V. G. Zakrzewski, J. Gao, N. Rega, 
 G. Zheng, W. Liang, M. Hada, M. Ehara, K. Toyota, R. Fukuda, 
 J. Hasegawa, M. Ishida, T. Nakajima, Y. Honda, O. Kitao, H. Nakai, 
 T. Vreven, K. Throssell, J. A. Montgomery, Jr., J. E. Peralta, 
 F. Ogliaro, M. J. Bearpark, J. J. Heyd, E. N. Brothers, K. N. Kudin, 
 V. N. Staroverov, T. A. Keith, R. Kobayashi, J. Normand, 
 K. Raghavachari, A. P. Rendell, J. C. Burant, S. S. Iyengar, 
 J. Tomasi, M. Cossi, J. M. Millam, M. Klene, C. Adamo, R. Cammi, 
 J. W. Ochterski, R. L. Martin, K. Morokuma, O. Farkas, 
 J. B. Foresman, and D. J. Fox, Gaussian, Inc., Wallingford CT, 2016.
 
 ******************************************
 Gaussian 16:  ES64L-G16RevA.03 25-Dec-2016
                15-Sep-2025 
 ******************************************
 %chk=gauss.chk
 -------------------
 # hf/6-31G(d) force
 -------------------
 1/10=7,30=1,38=1/1,3;
 2/12=2,17=6,18=5,40=1/2;
 3/5=1,6=6,7=1,11=9,25=1,30=1,71=1/1,2,3;
 4//1;
 5/5=2,38=5/2;
 6/7=2,8=2,9=2,10=2,28=1/1;
 7/29=1/1,2,3,16;
 1/10=7,30=1/3;
 99//99;
 -----------------
 Force calculation
 -----------------
 Symbolic Z-matrix:
 Charge =  0 Multiplicity = 1
 C                    -2.7138    0.46922  -0.01394 
 C                    -2.07712   1.2239    1.1766 
 C                    -0.83754   0.54015   1.77549 
 F                     0.18577   0.6899    0.96783 
 F                    -3.2924    1.31795  -0.83256 
 F                    -3.61206  -0.38637   0.40835 
 F                    -1.70485   2.43008   0.77032 
 F                    -2.99276   1.35371   2.12521 
 F                    -0.54934   1.09244   2.92815 
 F                    -1.0605   -0.74196   1.96137 
 F                    -1.78998  -0.18654  -0.68194 
 

 GradGradGradGradGradGradGradGradGradGradGradGradGradGradGradGradGradGrad
 Berny optimization.
 Initialization pass.
 Trust Radius=3.00D-01 FncErr=1.00D-07 GrdErr=1.00D-07 EigMax=2.50D+02 EigMin=1.00D-04
 Number of steps in this run=      2 maximum allowed number of steps=      2.
 GradGradGradGradGradGradGradGradGradGradGradGradGradGradGradGradGradGrad

                          Input orientation:                          
 ---------------------------------------------------------------------
 Center     Atomic      Atomic             Coordinates (Angstroms)
 Number     Number       Type             X           Y           Z
 ---------------------------------------------------------------------
      1          6           0       -2.713797    0.469222   -0.013937
      2          6           0       -2.077115    1.223895    1.176598
      3          6           0       -0.837541    0.540150    1.775486
      4          9           0        0.185770    0.689899    0.967827
      5          9           0       -3.292400    1.317951   -0.832556
      6          9           0       -3.612063   -0.386368    0.408349
      7          9           0       -1.704853    2.430079    0.770324
      8          9           0       -2.992760    1.353713    2.125206
      9          9           0       -0.549341    1.092441    2.928153
     10          9           0       -1.060501   -0.741964    1.961369
     11          9           0       -1.789976   -0.186540   -0.681940
 ---------------------------------------------------------------------
                    Distance matrix (angstroms):
                    1          2          3          4          5
     1  C    0.000000
     2  C    1.546696   0.000000
     3  C    2.593723   1.537114   0.000000
     4  F    3.069209   2.334392   1.312213   0.000000
     5  F    1.313492   2.349993   3.665132   3.966547   0.000000
     6  F    1.310436   2.353555   3.228850   3.986841   2.132307
     7  F    2.340511   1.326091   2.309635   2.577147   2.515226
     8  F    2.331540   1.324808   2.330056   3.447206   2.973116
     9  F    3.705288   2.327943   1.310239   2.131972   4.660275
    10  F    2.846435   2.348184   1.314564   2.142557   4.126820
    11  F    1.315179   2.350732   2.733890   2.719090   2.131539
                    6          7          8          9         10
     6  F    0.000000
     7  F    3.420650   0.000000
     8  F    2.521709   2.157075   0.000000
     9  F    4.232795   2.789392   2.585205   0.000000
    10  F    3.008121   3.449004   2.855228   2.135649   0.000000
    11  F    2.132759   2.993829   3.420400   4.025884   2.797805
                   11
    11  F    0.000000
 Stoichiometry    C3F8
 Framework group  C1[X(C3F8)]
 Deg. of freedom    27
 Full point group                 C1      NOp   1
 Largest Abelian subgroup         C1      NOp   1
 Largest concise Abelian subgroup C1      NOp   1
                         Standard orientation:                         
 ---------------------------------------------------------------------
 Center     Atomic      Atomic             Coordinates (Angstroms)
 Number     Number       Type             X           Y           Z
 ---------------------------------------------------------------------
      1          6           0       -1.300401   -0.221186    0.000895
      2          6           0        0.008457    0.602902    0.007164
      3          6           0        1.293246   -0.240913    0.003838
      4          9           0        1.477756   -0.763979   -1.185389
      5          9           0       -2.254772    0.446791   -0.605934
      6          9           0       -1.685667   -0.486050    1.225092
      7          9           0        0.037503    1.370252   -1.073968
      8          9           0        0.008754    1.376136    1.082908
      9          9           0        2.317577    0.523656    0.291771
     10          9           0        1.216802   -1.204117    0.895172
     11          9           0       -1.118821   -1.356558   -0.637584
 ---------------------------------------------------------------------
 Rotational constants (GHZ):           1.7112718           0.9768669           0.9175591
 Standard basis: 6-31G(d) (6D, 7F)
 There are   165 symmetry adapted cartesian basis functions of A   symmetry.
 There are   165 symmetry adapted basis functions of A   symmetry.
   165 basis functions,   308 primitive gaussians,   165 cartesian basis functions
    45 alpha electrons       45 beta electrons
       nuclear repulsion energy       806.0893928149 Hartrees.
 NAtoms=   11 NActive=   11 NUniq=   11 SFac= 1.00D+00 NAtFMM=   60 NAOKFM=F Big=F
 Integral buffers will be    131072 words long.
 Raffenetti 1 integral format.
 Two-electron integral symmetry is turned on.
 One-electron integrals computed using PRISM.
 NBasis=   165 RedAO= T EigKep=  1.07D-03  NBF=   165
 NBsUse=   165 1.00D-06 EigRej= -1.00D+00 NBFU=   165
 ExpMin= 1.69D-01 ExpMax= 7.00D+03 ExpMxC= 1.05D+03 IAcc=3 IRadAn=         5 AccDes= 0.00D+00
 Harris functional with IExCor=  205 and IRadAn=       5 diagonalized for initial guess.
 HarFok:  IExCor=  205 AccDes= 0.00D+00 IRadAn=         5 IDoV= 1 UseB2=F ITyADJ=14
 ICtDFT=  3500011 ScaDFX=  1.000000  1.000000  1.000000  1.000000
 FoFCou: FMM=F IPFlag=           0 FMFlag=      100000 FMFlg1=           0
         NFxFlg=           0 DoJE=T BraDBF=F KetDBF=T FulRan=T
         wScrn=  0.000000 ICntrl=       500 IOpCl=  0 I1Cent=   200000004 NGrid=           0
         NMat0=    1 NMatS0=      1 NMatT0=    0 NMatD0=    1 NMtDS0=    0 NMtDT0=    0
 Petite list used in FoFCou.
 Keep R1 ints in memory in canonical form, NReq=96071382.
 Requested convergence on RMS density matrix=1.00D-08 within 128 cycles.
 Requested convergence on MAX density matrix=1.00D-06.
 Requested convergence on             energy=1.00D-06.
 No special actions if energy rises.
 SCF Done:  E(RHF) =  -909.122817607     A.U. after   11 cycles
            NFock= 11  Conv=0.54D-08     -V/T= 2.0019

 **********************************************************************

            Population analysis using the SCF density.

 **********************************************************************

 Orbital symmetries:
       Occupied  (A) (A) (A) (A) (A) (A) (A) (A) (A) (A) (A) (A)
                 (A) (A) (A) (A) (A) (A) (A) (A) (A) (A) (A) (A)
                 (A) (A) (A) (A) (A) (A) (A) (A) (A) (A) (A) (A)
                 (A) (A) (A) (A) (A) (A) (A) (A) (A)
       Virtual   (A) (A) (A) (A) (A) (A) (A) (A) (A) (A) (A) (A)
                 (A) (A) (A) (A) (A) (A) (A) (A) (A) (A) (A) (A)
                 (A) (A) (A) (A) (A) (A) (A) (A) (A) (A) (A) (A)
                 (A) (A) (A) (A) (A) (A) (A) (A) (A) (A) (A) (A)
                 (A) (A) (A) (A) (A) (A) (A) (A) (A) (A) (A) (A)
                 (A) (A) (A) (A) (A) (A) (A) (A) (A) (A) (A) (A)
                 (A) (A) (A) (A) (A) (A) (A) (A) (A) (A) (A) (A)
                 (A) (A) (A) (A) (A) (A) (A) (A) (A) (A) (A) (A)
                 (A) (A) (A) (A) (A) (A) (A) (A) (A) (A) (A) (A)
                 (A) (A) (A) (A) (A) (A) (A) (A) (A) (A) (A) (A)
 The electronic state is 1-A.
 Alpha  occ. eigenvalues --  -26.38043 -26.37904 -26.37736 -26.37733 -26.37671
 Alpha  occ. eigenvalues --  -26.37597 -26.37477 -26.37416 -11.54838 -11.54737
 Alpha  occ. eigenvalues --  -11.48115  -1.78837  -1.77756  -1.73231  -1.68286
 Alpha  occ. eigenvalues --   -1.67782  -1.67514  -1.67440  -1.66171  -1.12260
 Alpha  occ. eigenvalues --   -1.02537  -0.95573  -0.90816  -0.88902  -0.87605
 Alpha  occ. eigenvalues --   -0.86545  -0.85587  -0.85438  -0.81421  -0.76278
 Alpha  occ. eigenvalues --   -0.75429  -0.74435  -0.74010  -0.73746  -0.73116
 Alpha  occ. eigenvalues --   -0.71673  -0.70222  -0.70132  -0.68401  -0.68346
 Alpha  occ. eigenvalues --   -0.67920  -0.67531  -0.67256  -0.63225  -0.55989
 Alpha virt. eigenvalues --    0.24848   0.25336   0.36286   0.39112   0.42107
 Alpha virt. eigenvalues --    0.44397   0.46574   0.50332   0.51332   0.55888
 Alpha virt. eigenvalues --    0.64356   0.64893   0.68725   0.68992   0.71457
 Alpha virt. eigenvalues --    0.76482   0.77015   0.85608   0.87483   0.89297
 Alpha virt. eigenvalues --    1.05672   1.12363   1.22404   1.23820   1.25611
 Alpha virt. eigenvalues --    1.31051   1.33653   1.34409   1.34787   1.36977
 Alpha virt. eigenvalues --    1.40294   1.46375   1.52611   1.52716   1.55007
 Alpha virt. eigenvalues --    1.56681   1.57890   1.58467   1.59779   1.61615
 Alpha virt. eigenvalues --    1.62133   1.63590   1.64088   1.64975   1.65467
 Alpha virt. eigenvalues --    1.65979   1.68710   1.70113   1.72369   1.77542
 Alpha virt. eigenvalues --    1.79406   1.82387   1.83920   1.88185   1.90345
 Alpha virt. eigenvalues --    1.95321   1.97315   1.98241   2.03344   2.04715
 Alpha virt. eigenvalues --    2.05565   2.06434   2.07366   2.09962   2.10408
 Alpha virt. eigenvalues --    2.10902   2.16332   2.18904   2.22074   2.27125
 Alpha virt. eigenvalues --    2.29007   2.30093   2.30628   2.32056   2.32453
 Alpha virt. eigenvalues --    2.37593   2.38180   2.39507   2.41656   2.42171
 Alpha virt. eigenvalues --    2.43957   2.45492   2.50786   2.54280   2.57794
 Alpha virt. eigenvalues --    2.60250   2.64236   2.66424   2.75179   2.78437
 Alpha virt. eigenvalues --    2.82547   2.84490   2.93880   2.94999   3.02983
 Alpha virt. eigenvalues --    3.11101   3.14499   3.17296   3.24803   3.28539
 Alpha virt. eigenvalues --    3.29685   3.39054   3.41059   3.41599   3.43139
 Alpha virt. eigenvalues --    3.43537   3.47140   3.47704   3.53928   4.53515
 Alpha virt. eigenvalues --    4.55989   4.71219   4.80953   5.10136   5.26553
 Alpha virt. eigenvalues --    5.48594   5.61037   5.96761   6.10993   6.52547
          Condensed to atoms (all electrons):
               1          2          3          4          5          6
     1  C    3.775116   0.365330  -0.067517   0.002119   0.291871   0.289012
     2  C    0.365330   4.438572   0.376485  -0.036158  -0.024512  -0.034018
     3  C   -0.067517   0.376485   3.770994   0.279390   0.001354   0.000990
     4  F    0.002119  -0.036158   0.279390   9.160085  -0.000007   0.000002
     5  F    0.291871  -0.024512   0.001354  -0.000007   9.141837  -0.035189
     6  F    0.289012  -0.034018   0.000990   0.000002  -0.035189   9.146270
     7  F   -0.016962   0.215333  -0.020173   0.001118   0.000028   0.000330
     8  F   -0.018672   0.217645  -0.018297   0.000348   0.000130   0.000737
     9  F    0.001449  -0.025283   0.295484  -0.034570  -0.000001  -0.000002
    10  F    0.012271  -0.040955   0.278217  -0.031940   0.000001  -0.000165
    11  F    0.279765  -0.038375   0.012236  -0.000310  -0.034919  -0.034287
               7          8          9         10         11
     1  C   -0.016962  -0.018672   0.001449   0.012271   0.279765
     2  C    0.215333   0.217645  -0.025283  -0.040955  -0.038375
     3  C   -0.020173  -0.018297   0.295484   0.278217   0.012236
     4  F    0.001118   0.000348  -0.034570  -0.031940  -0.000310
     5  F    0.000028   0.000130  -0.000001   0.000001  -0.034919
     6  F    0.000330   0.000737  -0.000002  -0.000165  -0.034287
     7  F    9.209299  -0.029231   0.000347   0.000370   0.000346
     8  F   -0.029231   9.205425   0.000562   0.000605   0.000365
     9  F    0.000347   0.000562   9.136416  -0.033967   0.000001
    10  F    0.000370   0.000605  -0.033967   9.160525  -0.001395
    11  F    0.000346   0.000365   0.000001  -0.001395   9.160790
 Mulliken charges:
               1
     1  C    1.086218
     2  C    0.585937
     3  C    1.090838
     4  F   -0.340077
     5  F   -0.340593
     6  F   -0.333681
     7  F   -0.360805
     8  F   -0.359617
     9  F   -0.340437
    10  F   -0.343567
    11  F   -0.344216
 Sum of Mulliken charges =  -0.00000
 Mulliken charges with hydrogens summed into heavy atoms:
               1
     1  C    1.086218
     2  C    0.585937
     3  C    1.090838
     4  F   -0.340077
     5  F   -0.340593
     6  F   -0.333681
     7  F   -0.360805
     8  F   -0.359617
     9  F   -0.340437
    10  F   -0.343567
    11  F   -0.344216
 Electronic spatial extent (au):  <R**2>=           1285.0749
 Charge=             -0.0000 electrons
 Dipole moment (field-independent basis, Debye):
    X=              0.0080    Y=             -0.0554    Z=              0.0446  Tot=              0.0716
 Quadrupole moment (field-independent basis, Debye-Ang):
   XX=            -56.9213   YY=            -57.2609   ZZ=            -57.2804
   XY=             -0.0886   XZ=              0.0163   YZ=              0.0102
 Traceless Quadrupole moment (field-independent basis, Debye-Ang):
   XX=              0.2329   YY=             -0.1067   ZZ=             -0.1262
   XY=             -0.0886   XZ=              0.0163   YZ=              0.0102
 Octapole moment (field-independent basis, Debye-Ang**2):
  XXX=              0.1933  YYY=             -0.9394  ZZZ=             -0.4218  XYY=             -0.3028
  XXY=             -1.6819  XXZ=              0.1206  XZZ=              0.3706  YZZ=             -0.5640
  YYZ=              0.2271  XYZ=             -0.7784
 Hexadecapole moment (field-independent basis, Debye-Ang**3):
 XXXX=           -671.1594 YYYY=           -287.4969 ZZZZ=           -227.5488 XXXY=             -0.6161
 XXXZ=             -2.1214 YYYX=             -0.3528 YYYZ=             -0.2132 ZZZX=              2.4076
 ZZZY=              0.0385 XXYY=           -157.4044 XXZZ=           -152.1083 YYZZ=            -88.5269
 XXYZ=              0.5133 YYXZ=             -1.3628 ZZXY=              0.8163
 N-N= 8.060893928149D+02 E-N=-3.778589689026D+03  KE= 9.073787864168D+02
 Calling FoFJK, ICntrl=      2127 FMM=F ISym2X=0 I1Cent= 0 IOpClX= 0 NMat=1 NMatS=1 NMatT=0.
 ***** Axes restored to original set *****
 -------------------------------------------------------------------
 Center     Atomic                   Forces (Hartrees/Bohr)
 Number     Number              X              Y              Z
 -------------------------------------------------------------------
      1        6          -0.000261547    0.001186231   -0.003559313
      2        6          -0.000700892   -0.000466264   -0.001555053
      3        6          -0.000450264    0.000670059   -0.001037167
      4        9          -0.001020548   -0.001975102    0.001456514
      5        9           0.000906377   -0.001343383    0.004266356
      6        9           0.002414336    0.000532200    0.001257500
      7        9          -0.000457694   -0.000867860    0.000002012
      8        9           0.000462506    0.000110690    0.000153090
      9        9          -0.000430879   -0.000024581   -0.000329231
     10        9          -0.000349453    0.001469861    0.000070890
     11        9          -0.000111942    0.000708149   -0.000725596
 -------------------------------------------------------------------
 Cartesian Forces:  Max     0.004266356 RMS     0.001341857

 GradGradGradGradGradGradGradGradGradGradGradGradGradGradGradGradGradGrad
 Berny optimization.
 Search for a local minimum.
 Step number   1 out of a maximum of    2
 All quantities printed in internal units (Hartrees-Bohrs-Radians)
 Second derivative matrix not updated -- first step.
 ITU=  0
     Eigenvalues ---    0.00150   0.00236   0.01351   0.03375   0.05287
     Eigenvalues ---    0.05340   0.05358   0.06812   0.08522   0.09209
     Eigenvalues ---    0.12450   0.14418   0.15110   0.15636   0.18207
     Eigenvalues ---    0.21399   0.24573   0.36410   0.64703   1.01619
     Eigenvalues ---    1.20212   1.30270   1.47928   1.61220   1.63364
     Eigenvalues ---    1.67325   1.73011
 Quadratic step=1.749D+00 exceeds max=3.000D-01 adjusted using Lamda=-7.551D-03.
 Angle between NR and scaled steps=   9.35 degrees.
 Angle between quadratic step and forces=  64.02 degrees.
 Linear search not attempted -- first point.
 B after Tr=    -0.000417    0.000327   -0.000337
         Rot=    1.000000   -0.000008   -0.000099   -0.000051 Ang=  -0.01 deg.
 Variable       Old X    -DE/DX   Delta X   Delta X   Delta X     New X
                                 (Linear)    (Quad)   (Total)
    X1       -5.12833  -0.00026   0.00000   0.01871   0.01819  -5.11014
    Y1        0.88670   0.00119   0.00000   0.00633   0.00614   0.89284
    Z1       -0.02634  -0.00356   0.00000  -0.01312  -0.01243  -0.03877
    X2       -3.92518  -0.00070   0.00000   0.01183   0.01162  -3.91356
    Y2        2.31283  -0.00047   0.00000   0.00633   0.00622   2.31905
    Z2        2.22345  -0.00156   0.00000  -0.02061  -0.02013   2.20332
    X3       -1.58272  -0.00045   0.00000  -0.01904  -0.01890  -1.60162
    Y3        1.02073   0.00067   0.00000  -0.00920  -0.00909   1.01164
    Z3        3.35518  -0.00104   0.00000   0.01089   0.01089   3.36607
    X4        0.35105  -0.00102   0.00000  -0.00422  -0.00440   0.34666
    Y4        1.30372  -0.00198   0.00000  -0.09913  -0.09880   1.20492
    Z4        1.82893   0.00146   0.00000   0.01739   0.01700   1.84593
    X5       -6.22173   0.00091   0.00000  -0.10628  -0.10724  -6.32898
    Y5        2.49057  -0.00134   0.00000   0.00362   0.00333   2.49389
    Z5       -1.57330   0.00427   0.00000   0.08227   0.08323  -1.49008
    X6       -6.82581   0.00241   0.00000   0.12241   0.12223  -6.70358
    Y6       -0.73013   0.00053   0.00000  -0.08064  -0.08101  -0.81114
    Z6        0.77167   0.00126   0.00000   0.02437   0.02535   0.79701
    X7       -3.22171  -0.00046   0.00000   0.03004   0.02944  -3.19226
    Y7        4.59218  -0.00087   0.00000  -0.00355  -0.00357   4.58861
    Z7        1.45570   0.00000   0.00000  -0.02775  -0.02738   1.42832
    X8       -5.65550   0.00046   0.00000   0.00512   0.00524  -5.65026
    Y8        2.55815   0.00011   0.00000   0.02774   0.02743   2.58558
    Z8        4.01606   0.00015   0.00000  -0.03009  -0.02927   3.98679
    X9       -1.03810  -0.00043   0.00000  -0.00940  -0.00893  -1.04704
    Y9        2.06441  -0.00002   0.00000   0.02733   0.02746   2.09187
    Z9        5.53341  -0.00033   0.00000  -0.00973  -0.00983   5.52358
   X10       -2.00406  -0.00035   0.00000  -0.07478  -0.07431  -2.07837
   Y10       -1.40211   0.00147   0.00000   0.01071   0.01076  -1.39135
   Z10        3.70645   0.00007   0.00000   0.06515   0.06521   3.77166
   X11       -3.38256  -0.00011   0.00000   0.02773   0.02706  -3.35550
   Y11       -0.35251   0.00071   0.00000   0.11112   0.11113  -0.24138
   Z11       -1.28868  -0.00073   0.00000  -0.10295  -0.10263  -1.39131
         Item               Value     Threshold  Converged?
 Maximum Force            0.004266     0.000450     NO 
 RMS     Force            0.001342     0.000300     NO 
 Maximum Displacement     0.122228     0.001800     NO 
 RMS     Displacement     0.052227     0.001200     NO 
 Predicted change in Energy=-8.464589D-04
 GradGradGradGradGradGradGradGradGradGradGradGradGradGradGradGradGradGrad

 1\1\GINC-MU01\Force\RHF\6-31G(d)\C3F8\LBL8\15-Sep-2025\0\\# hf/6-31G(d
 ) force\\Force calculation\\0,1\C,-2.71379661,0.46922182,-0.01393688\C
 ,-2.07711511,1.22389521,1.17659843\C,-0.83754087,0.54014968,1.77548601
 \F,0.18576992,0.68989894,0.96782706\F,-3.2924003,1.31795096,-0.8325564
 \F,-3.61206337,-0.38636761,0.40834867\F,-1.70485287,2.43007873,0.77032
 39\F,-2.99276028,1.35371291,2.12520597\F,-0.54934124,1.09244129,2.9281
 5302\F,-1.06050135,-0.74196375,1.96136923\F,-1.78997624,-0.1865401,-0.
 68193974\\Version=ES64L-G16RevA.03\State=1-A\HF=-909.1228176\RMSD=5.38
 3e-09\RMSF=1.342e-03\Dipole=-0.0000007,-0.0275339,0.0059097\Quadrupole
 =0.0751018,-0.0936122,0.0185104,-0.0453347,0.1293282,-0.03058\PG=C01 [
 X(C3F8)]\\@


  THE LARGE PRINT GIVETH,
  AND THE SMALL PRINT TAKETH AWAY.

                     -- TOM WAITS
 Job cpu time:       0 days  0 hours  0 minutes  7.7 seconds.
 Elapsed time:       0 days  0 hours  0 minutes  7.7 seconds.
 File lengths (MBytes):  RWF=     28 Int=      0 D2E=      0 Chk=      4 Scr=      2
 Normal termination of Gaussian 16 at Mon Sep 15 21:52:41 2025.
