 Entering Gaussian System, Link 0=g16
 Input=gauss.gjf
 Output=gauss.log
 Initial command:
 /software/Applications/gaussian/G16.A03.AVX/g16/l1.exe "/home/lbl8/code/hartree-fock_geomopt-rev-3/example/Gau-3225980.inp" -scrdir="/home/lbl8/code/hartree-fock_geomopt-rev-3/example/"
 Entering Link 1 = /software/Applications/gaussian/G16.A03.AVX/g16/l1.exe PID=   3225982.
  
 Copyright (c) 1988,1990,1992,1993,1995,1998,2003,2009,2016,
            Gaussian, Inc.  All Rights Reserved.
  
 This is part of the Gaussian(R) 16 program.  It is based on
 the Gaussian(R) 09 system (copyright 2009, Gaussian, Inc.),
 the Gaussian(R) 03 system (copyright 2003, Gaussian, Inc.),
 the Gaussian(R) 98 system (copyright 1998, Gaussian, Inc.),
 the Gaussian(R) 94 system (copyright 1995, Gaussian, Inc.),
 the Gaussian 92(TM) system (copyright 1992, Gaussian, Inc.),
 the Gaussian 90(TM) system (copyright 1990, Gaussian, Inc.),
 the Gaussian 88(TM) system (copyright 1988, Gaussian, Inc.),
 the Gaussian 86(TM) system (copyright 1986, Carnegie Mellon
 University), and the Gaussian 82(TM) system (copyright 1983,
 Carnegie Mellon University). Gaussian is a federally registered
 trademark of Gaussian, Inc.
  
 This software contains proprietary and confidential information,
 including trade secrets, belonging to Gaussian, Inc.
  
 This software is provided under written license and may be
 used, copied, transmitted, or stored only in accord with that
 written license.
  
 The following legend is applicable only to US Government
 contracts under FAR:
  
                    RESTRICTED RIGHTS LEGEND
  
 Use, reproduction and disclosure by the US Government is
 subject to restrictions as set forth in subparagraphs (a)
 and (c) of the Commercial Computer Software - Restricted
 Rights clause in FAR 52.227-19.
  
 Gaussian, Inc.
 340 Quinnipiac St., Bldg. 40, Wallingford CT 06492
  
  
 ---------------------------------------------------------------
 Warning -- This program may not be used in any manner that
 competes with the business of Gaussian, Inc. or will provide
 assistance to any competitor of Gaussian, Inc.  The licensee
 of this program is prohibited from giving any competitor of
 Gaussian, Inc. access to this program.  By using this program,
 the user acknowledges that Gaussian, Inc. is engaged in the
 business of creating and licensing software in the field of
 computational chemistry and represents and warrants to the
 licensee that it is not a competitor of Gaussian, Inc. and that
 it will not use this program in any manner prohibited above.
 ---------------------------------------------------------------
  

 Cite this work as:
 Gaussian 16, Revision A.03,
 M. J. Frisch, G. W. Trucks, H. B. Schlegel, G. E. Scuseria, 
 M. A. Robb, J. R. Cheeseman, G. Scalmani, V. Barone, 
 G. A. Petersson, H. Nakatsuji, X. Li, M. Caricato, A. V. Marenich, 
 J. Bloino, B. G. Janesko, R. Gomperts, B. Mennucci, H. P. Hratchian, 
 J. V. Ortiz, A. F. Izmaylov, J. L. Sonnenberg, D. Williams-Young, 
 F. Ding, F. Lipparini, F. Egidi, J. Goings, B. Peng, A. Petrone, 
 T. Henderson, D. Ranasinghe, V. G. Zakrzewski, J. Gao, N. Rega, 
 G. Zheng, W. Liang, M. Hada, M. Ehara, K. Toyota, R. Fukuda, 
 J. Hasegawa, M. Ishida, T. Nakajima, Y. Honda, O. Kitao, H. Nakai, 
 T. Vreven, K. Throssell, J. A. Montgomery, Jr., J. E. Peralta, 
 F. Ogliaro, M. J. Bearpark, J. J. Heyd, E. N. Brothers, K. N. Kudin, 
 V. N. Staroverov, T. A. Keith, R. Kobayashi, J. Normand, 
 K. Raghavachari, A. P. Rendell, J. C. Burant, S. S. Iyengar, 
 J. Tomasi, M. Cossi, J. M. Millam, M. Klene, C. Adamo, R. Cammi, 
 J. W. Ochterski, R. L. Martin, K. Morokuma, O. Farkas, 
 J. B. Foresman, and D. J. Fox, Gaussian, Inc., Wallingford CT, 2016.
 
 ******************************************
 Gaussian 16:  ES64L-G16RevA.03 25-Dec-2016
                15-Sep-2025 
 ******************************************
 %chk=gauss.chk
 -------------------
 # hf/6-31G(d) force
 -------------------
 1/10=7,30=1,38=1/1,3;
 2/12=2,17=6,18=5,40=1/2;
 3/5=1,6=6,7=1,11=9,25=1,30=1,71=1/1,2,3;
 4//1;
 5/5=2,38=5/2;
 6/7=2,8=2,9=2,10=2,28=1/1;
 7/29=1/1,2,3,16;
 1/10=7,30=1/3;
 99//99;
 -----------------
 Force calculation
 -----------------
 Symbolic Z-matrix:
 Charge =  0 Multiplicity = 1
 C                    -2.67352   0.48184   0.00534 
 C                    -2.14038   1.18199   1.25032 
 C                    -0.83427   0.58412   1.70354 
 F                     0.07027   0.69735   0.76293 
 F                    -2.8585    1.3325   -0.98025 
 F                    -3.81136  -0.12755   0.25244 
 F                    -1.96912   2.48057   0.99478 
 F                    -3.03761   1.09      2.23435 
 F                    -0.37321   1.18897   2.78046 
 F                    -0.99261  -0.68444   1.98829 
 F                    -1.82427  -0.42287  -0.40731 
 

 GradGradGradGradGradGradGradGradGradGradGradGradGradGradGradGradGradGrad
 Berny optimization.
 Initialization pass.
 Trust Radius=3.00D-01 FncErr=1.00D-07 GrdErr=1.00D-07 EigMax=2.50D+02 EigMin=1.00D-04
 Number of steps in this run=      2 maximum allowed number of steps=      2.
 GradGradGradGradGradGradGradGradGradGradGradGradGradGradGradGradGradGrad

                          Input orientation:                          
 ---------------------------------------------------------------------
 Center     Atomic      Atomic             Coordinates (Angstroms)
 Number     Number       Type             X           Y           Z
 ---------------------------------------------------------------------
      1          6           0       -2.673522    0.481840    0.005338
      2          6           0       -2.140378    1.181989    1.250319
      3          6           0       -0.834274    0.584121    1.703539
      4          9           0        0.070275    0.697350    0.762931
      5          9           0       -2.858496    1.332497   -0.980251
      6          9           0       -3.811358   -0.127550    0.252437
      7          9           0       -1.969116    2.480569    0.994776
      8          9           0       -3.037612    1.089999    2.234347
      9          9           0       -0.373209    1.188970    2.780460
     10          9           0       -0.992614   -0.684440    1.988294
     11          9           0       -1.824272   -0.422866   -0.407312
 ---------------------------------------------------------------------
                    Distance matrix (angstroms):
                    1          2          3          4          5
     1  C    0.000000
     2  C    1.524607   0.000000
     3  C    2.505430   1.506241   0.000000
     4  F    2.854613   2.315039   1.309875   0.000000
     5  F    1.314998   2.348146   3.443874   3.466957   0.000000
     6  F    1.314186   2.345812   3.387507   4.001017   2.135229
     7  F    2.338823   1.334519   2.320932   2.718959   2.451489
     8  F    2.338995   1.334842   2.322147   3.460953   3.228705
     9  F    3.673251   2.337577   1.318401   2.123391   4.510011
    10  F    2.849171   2.312039   1.309734   2.130866   4.044974
    11  F    1.307669   2.328781   2.539648   2.492722   2.116406
                    6          7          8          9         10
     6  F    0.000000
     7  F    3.278293   0.000000
     8  F    2.451342   2.147534   0.000000
     9  F    4.465982   2.720995   2.721595   0.000000
    10  F    3.356880   3.458022   2.718675   2.126230   0.000000
    11  F    2.114472   3.227501   3.277090   3.855579   2.549315
                   11
    11  F    0.000000
 Stoichiometry    C3F8
 Framework group  C1[X(C3F8)]
 Deg. of freedom    27
 Full point group                 C1      NOp   1
 Largest Abelian subgroup         C1      NOp   1
 Largest concise Abelian subgroup C1      NOp   1
                         Standard orientation:                         
 ---------------------------------------------------------------------
 Center     Atomic      Atomic             Coordinates (Angstroms)
 Number     Number       Type             X           Y           Z
 ---------------------------------------------------------------------
      1          6           0       -1.258455   -0.212978   -0.000804
      2          6           0        0.014406    0.626216    0.001208
      3          6           0        1.246832   -0.239744   -0.000066
      4          9           0        1.270142   -0.998842   -1.067305
      5          9           0       -2.024160    0.080914   -1.028687
      6          9           0       -1.949570   -0.032075    1.102246
      7          9           0        0.028733    1.420171   -1.071347
      8          9           0        0.027107    1.417459    1.076185
      9          9           0        2.347751    0.485620    0.002238
     10          9           0        1.263340   -1.003855    1.063544
     11          9           0       -0.965199   -1.485054   -0.077099
 ---------------------------------------------------------------------
 Rotational constants (GHZ):           1.6999445           1.0079950           0.9390487
 Standard basis: 6-31G(d) (6D, 7F)
 There are   165 symmetry adapted cartesian basis functions of A   symmetry.
 There are   165 symmetry adapted basis functions of A   symmetry.
   165 basis functions,   308 primitive gaussians,   165 cartesian basis functions
    45 alpha electrons       45 beta electrons
       nuclear repulsion energy       811.7903991281 Hartrees.
 NAtoms=   11 NActive=   11 NUniq=   11 SFac= 1.00D+00 NAtFMM=   60 NAOKFM=F Big=F
 Integral buffers will be    131072 words long.
 Raffenetti 1 integral format.
 Two-electron integral symmetry is turned on.
 One-electron integrals computed using PRISM.
 NBasis=   165 RedAO= T EigKep=  7.33D-04  NBF=   165
 NBsUse=   165 1.00D-06 EigRej= -1.00D+00 NBFU=   165
 ExpMin= 1.69D-01 ExpMax= 7.00D+03 ExpMxC= 1.05D+03 IAcc=3 IRadAn=         5 AccDes= 0.00D+00
 Harris functional with IExCor=  205 and IRadAn=       5 diagonalized for initial guess.
 HarFok:  IExCor=  205 AccDes= 0.00D+00 IRadAn=         5 IDoV= 1 UseB2=F ITyADJ=14
 ICtDFT=  3500011 ScaDFX=  1.000000  1.000000  1.000000  1.000000
 FoFCou: FMM=F IPFlag=           0 FMFlag=      100000 FMFlg1=           0
         NFxFlg=           0 DoJE=T BraDBF=F KetDBF=T FulRan=T
         wScrn=  0.000000 ICntrl=       500 IOpCl=  0 I1Cent=   200000004 NGrid=           0
         NMat0=    1 NMatS0=      1 NMatT0=    0 NMatD0=    1 NMtDS0=    0 NMtDT0=    0
 Petite list used in FoFCou.
 Keep R1 ints in memory in canonical form, NReq=96071382.
 Requested convergence on RMS density matrix=1.00D-08 within 128 cycles.
 Requested convergence on MAX density matrix=1.00D-06.
 Requested convergence on             energy=1.00D-06.
 No special actions if energy rises.
 SCF Done:  E(RHF) =  -909.116133645     A.U. after   11 cycles
            NFock= 11  Conv=0.66D-08     -V/T= 2.0018

 **********************************************************************

            Population analysis using the SCF density.

 **********************************************************************

 Orbital symmetries:
       Occupied  (A) (A) (A) (A) (A) (A) (A) (A) (A) (A) (A) (A)
                 (A) (A) (A) (A) (A) (A) (A) (A) (A) (A) (A) (A)
                 (A) (A) (A) (A) (A) (A) (A) (A) (A) (A) (A) (A)
                 (A) (A) (A) (A) (A) (A) (A) (A) (A)
       Virtual   (A) (A) (A) (A) (A) (A) (A) (A) (A) (A) (A) (A)
                 (A) (A) (A) (A) (A) (A) (A) (A) (A) (A) (A) (A)
                 (A) (A) (A) (A) (A) (A) (A) (A) (A) (A) (A) (A)
                 (A) (A) (A) (A) (A) (A) (A) (A) (A) (A) (A) (A)
                 (A) (A) (A) (A) (A) (A) (A) (A) (A) (A) (A) (A)
                 (A) (A) (A) (A) (A) (A) (A) (A) (A) (A) (A) (A)
                 (A) (A) (A) (A) (A) (A) (A) (A) (A) (A) (A) (A)
                 (A) (A) (A) (A) (A) (A) (A) (A) (A) (A) (A) (A)
                 (A) (A) (A) (A) (A) (A) (A) (A) (A) (A) (A) (A)
                 (A) (A) (A) (A) (A) (A) (A) (A) (A) (A) (A) (A)
 The electronic state is 1-A.
 Alpha  occ. eigenvalues --  -26.37957 -26.37954 -26.37843 -26.37543 -26.37540
 Alpha  occ. eigenvalues --  -26.37493 -26.37482 -26.37453 -11.54906 -11.54724
 Alpha  occ. eigenvalues --  -11.48353  -1.79224  -1.77851  -1.73054  -1.68302
 Alpha  occ. eigenvalues --   -1.67907  -1.67602  -1.67091  -1.65772  -1.13932
 Alpha  occ. eigenvalues --   -1.02790  -0.95672  -0.91131  -0.89302  -0.87755
 Alpha  occ. eigenvalues --   -0.86667  -0.85675  -0.85193  -0.80998  -0.76428
 Alpha  occ. eigenvalues --   -0.75433  -0.74923  -0.74136  -0.73802  -0.72705
 Alpha  occ. eigenvalues --   -0.71288  -0.70240  -0.70100  -0.68413  -0.68145
 Alpha  occ. eigenvalues --   -0.67710  -0.67071  -0.66828  -0.64316  -0.57161
 Alpha virt. eigenvalues --    0.22703   0.24589   0.35830   0.39110   0.43123
 Alpha virt. eigenvalues --    0.45655   0.48109   0.50951   0.52803   0.56122
 Alpha virt. eigenvalues --    0.64634   0.64984   0.68078   0.68435   0.73164
 Alpha virt. eigenvalues --    0.76814   0.77155   0.85755   0.86800   0.90487
 Alpha virt. eigenvalues --    1.03663   1.14109   1.20217   1.23419   1.24877
 Alpha virt. eigenvalues --    1.31354   1.33696   1.33926   1.35131   1.36443
 Alpha virt. eigenvalues --    1.40448   1.48818   1.50043   1.52353   1.52438
 Alpha virt. eigenvalues --    1.56224   1.57277   1.59132   1.60719   1.61502
 Alpha virt. eigenvalues --    1.62655   1.63489   1.64387   1.64714   1.66657
 Alpha virt. eigenvalues --    1.67910   1.70052   1.72542   1.73201   1.80198
 Alpha virt. eigenvalues --    1.80358   1.82188   1.84632   1.90579   1.95247
 Alpha virt. eigenvalues --    1.97116   1.97755   2.01942   2.02183   2.05964
 Alpha virt. eigenvalues --    2.06847   2.07603   2.09098   2.09814   2.13387
 Alpha virt. eigenvalues --    2.14308   2.14726   2.19001   2.21327   2.27790
 Alpha virt. eigenvalues --    2.28292   2.31131   2.31959   2.33642   2.34263
 Alpha virt. eigenvalues --    2.35707   2.39039   2.39213   2.39760   2.41068
 Alpha virt. eigenvalues --    2.42033   2.43840   2.47025   2.50096   2.50598
 Alpha virt. eigenvalues --    2.55044   2.66246   2.70808   2.73590   2.76994
 Alpha virt. eigenvalues --    2.87449   2.92933   2.97284   2.97482   3.03069
 Alpha virt. eigenvalues --    3.09449   3.13950   3.19806   3.26979   3.27823
 Alpha virt. eigenvalues --    3.32247   3.35639   3.40468   3.41767   3.43576
 Alpha virt. eigenvalues --    3.46950   3.49402   3.52438   3.55126   4.47752
 Alpha virt. eigenvalues --    4.52485   4.75427   4.81128   5.11114   5.28917
 Alpha virt. eigenvalues --    5.55746   5.67038   6.13467   6.29172   7.68332
          Condensed to atoms (all electrons):
               1          2          3          4          5          6
     1  C    3.763527   0.361748  -0.077921   0.008653   0.291996   0.292479
     2  C    0.361748   4.409331   0.386644  -0.037996  -0.026471  -0.028085
     3  C   -0.077921   0.386644   3.759181   0.274026   0.001025   0.000932
     4  F    0.008653  -0.037996   0.274026   9.170171  -0.000094   0.000002
     5  F    0.291996  -0.026471   0.001025  -0.000094   9.147011  -0.034956
     6  F    0.292479  -0.028085   0.000932   0.000002  -0.034956   9.146901
     7  F   -0.015875   0.220939  -0.016949   0.000767  -0.001381   0.000266
     8  F   -0.016115   0.221169  -0.017064   0.000356   0.000223  -0.001225
     9  F    0.001545  -0.022627   0.301187  -0.036220  -0.000001  -0.000001
    10  F    0.010341  -0.039929   0.274117  -0.031956   0.000002  -0.000138
    11  F    0.286495  -0.035351   0.011508  -0.003411  -0.037334  -0.037649
               7          8          9         10         11
     1  C   -0.015875  -0.016115   0.001545   0.010341   0.286495
     2  C    0.220939   0.221169  -0.022627  -0.039929  -0.035351
     3  C   -0.016949  -0.017064   0.301187   0.274117   0.011508
     4  F    0.000767   0.000356  -0.036220  -0.031956  -0.003411
     5  F   -0.001381   0.000223  -0.000001   0.000002  -0.037334
     6  F    0.000266  -0.001225  -0.000001  -0.000138  -0.037649
     7  F    9.208482  -0.032089   0.000204   0.000363   0.000321
     8  F   -0.032089   9.208332   0.000207   0.000808   0.000342
     9  F    0.000204   0.000207   9.139180  -0.035677  -0.000004
    10  F    0.000363   0.000808  -0.035677   9.169306  -0.002677
    11  F    0.000321   0.000342  -0.000004  -0.002677   9.159646
 Mulliken charges:
               1
     1  C    1.093127
     2  C    0.590629
     3  C    1.103314
     4  F   -0.344299
     5  F   -0.340019
     6  F   -0.338523
     7  F   -0.365047
     8  F   -0.364944
     9  F   -0.347793
    10  F   -0.344560
    11  F   -0.341886
 Sum of Mulliken charges =  -0.00000
 Mulliken charges with hydrogens summed into heavy atoms:
               1
     1  C    1.093127
     2  C    0.590629
     3  C    1.103314
     4  F   -0.344299
     5  F   -0.340019
     6  F   -0.338523
     7  F   -0.365047
     8  F   -0.364944
     9  F   -0.347793
    10  F   -0.344560
    11  F   -0.341886
 Electronic spatial extent (au):  <R**2>=           1262.5517
 Charge=             -0.0000 electrons
 Dipole moment (field-independent basis, Debye):
    X=             -0.0309    Y=             -0.0456    Z=             -0.0024  Tot=              0.0552
 Quadrupole moment (field-independent basis, Debye-Ang):
   XX=            -57.2425   YY=            -57.2554   ZZ=            -57.2515
   XY=             -0.1898   XZ=              0.0115   YZ=              0.0077
 Traceless Quadrupole moment (field-independent basis, Debye-Ang):
   XX=              0.0073   YY=             -0.0056   ZZ=             -0.0017
   XY=             -0.1898   XZ=              0.0115   YZ=              0.0077
 Octapole moment (field-independent basis, Debye-Ang**2):
  XXX=             -0.5462  YYY=             -1.3165  ZZZ=             -0.2119  XYY=             -0.8532
  XXY=             -1.3865  XXZ=              0.0958  XZZ=              1.2168  YZZ=             -1.4378
  YYZ=              0.1256  XYZ=             -0.1171
 Hexadecapole moment (field-independent basis, Debye-Ang**3):
 XXXX=           -647.2841 YYYY=           -292.4385 ZZZZ=           -226.6891 XXXY=             -2.3037
 XXXZ=             -0.2485 YYYX=             -1.1369 YYYZ=             -0.0931 ZZZX=              0.2833
 ZZZY=              0.0359 XXYY=           -152.3704 XXZZ=           -148.5868 YYZZ=            -88.7959
 XXYZ=              0.2280 YYXZ=             -0.1365 ZZXY=              2.0341
 N-N= 8.117903991281D+02 E-N=-3.790029587737D+03  KE= 9.074938055125D+02
 Calling FoFJK, ICntrl=      2127 FMM=F ISym2X=0 I1Cent= 0 IOpClX= 0 NMat=1 NMatS=1 NMatT=0.
 ***** Axes restored to original set *****
 -------------------------------------------------------------------
 Center     Atomic                   Forces (Hartrees/Bohr)
 Number     Number              X              Y              Z
 -------------------------------------------------------------------
      1        6          -0.017979277   -0.007395784   -0.023296823
      2        6          -0.017376118    0.024772710    0.012562628
      3        6           0.025859326   -0.002807933    0.017975882
      4        9           0.002509384    0.004251174   -0.002112870
      5        9          -0.000632352   -0.000133181    0.006340570
      6        9           0.002142916    0.004696962    0.001855467
      7        9           0.004443990   -0.010639933    0.000615064
      8        9           0.009550016   -0.003645803   -0.005481499
      9        9          -0.008045901    0.001092822   -0.004786643
     10        9          -0.003145233   -0.003189638    0.002852866
     11        9           0.002673247   -0.007001396   -0.006524643
 -------------------------------------------------------------------
 Cartesian Forces:  Max     0.025859326 RMS     0.010411334

 GradGradGradGradGradGradGradGradGradGradGradGradGradGradGradGradGradGrad
 Berny optimization.
 Search for a local minimum.
 Step number   1 out of a maximum of    2
 All quantities printed in internal units (Hartrees-Bohrs-Radians)
 Second derivative matrix not updated -- first step.
 ITU=  0
     Eigenvalues ---    0.00305   0.00528   0.01347   0.03639   0.05324
     Eigenvalues ---    0.05325   0.05695   0.06961   0.08605   0.09394
     Eigenvalues ---    0.12644   0.14495   0.15309   0.15771   0.18947
     Eigenvalues ---    0.21424   0.24855   0.37101   0.65913   1.02917
     Eigenvalues ---    1.25700   1.33561   1.43527   1.60764   1.63425
     Eigenvalues ---    1.67264   1.72524
 Quadratic step=8.761D-01 exceeds max=3.000D-01 adjusted using Lamda=-2.676D-02.
 Angle between NR and scaled steps=  13.45 degrees.
 Angle between quadratic step and forces=  66.85 degrees.
 Linear search not attempted -- first point.
 B after Tr=    -0.000665    0.000771    0.000318
         Rot=    1.000000   -0.000033   -0.000021    0.000021 Ang=  -0.01 deg.
 Variable       Old X    -DE/DX   Delta X   Delta X   Delta X     New X
                                 (Linear)    (Quad)   (Total)
    X1       -5.05223  -0.01798   0.00000  -0.04604  -0.04667  -5.09890
    Y1        0.91055  -0.00740   0.00000  -0.02728  -0.02630   0.88425
    Z1        0.01009  -0.02330   0.00000  -0.06553  -0.06495  -0.05486
    X2       -4.04473  -0.01738   0.00000   0.01754   0.01707  -4.02766
    Y2        2.23363   0.02477   0.00000  -0.01889  -0.01811   2.21553
    Z2        2.36276   0.01256   0.00000  -0.01549  -0.01486   2.34790
    X3       -1.57655   0.02586   0.00000   0.06053   0.06005  -1.51650
    Y3        1.10383  -0.00281   0.00000  -0.00152  -0.00091   1.10292
    Z3        3.21922   0.01798   0.00000   0.04794   0.04839   3.26761
    X4        0.13280   0.00251   0.00000   0.08048   0.07994   0.21274
    Y4        1.31780   0.00425   0.00000   0.04538   0.04605   1.36385
    Z4        1.44173  -0.00211   0.00000   0.06564   0.06604   1.50777
    X5       -5.40177  -0.00063   0.00000  -0.06399  -0.06463  -5.46640
    Y5        2.51805  -0.00013   0.00000   0.03027   0.03139   2.54944
    Z5       -1.85241   0.00634   0.00000  -0.00080  -0.00009  -1.85249
    X6       -7.20242   0.00214   0.00000  -0.05608  -0.05674  -7.25916
    Y6       -0.24104   0.00470   0.00000   0.03235   0.03339  -0.20765
    Z6        0.47704   0.00186   0.00000  -0.00306  -0.00246   0.47458
    X7       -3.72109   0.00444   0.00000   0.06017   0.05978  -3.66132
    Y7        4.68760  -0.01064   0.00000  -0.03997  -0.03917   4.64843
    Z7        1.87985   0.00062   0.00000  -0.01232  -0.01154   1.86832
    X8       -5.74025   0.00955   0.00000   0.05424   0.05384  -5.68642
    Y8        2.05980  -0.00365   0.00000  -0.03684  -0.03611   2.02369
    Z8        4.22230  -0.00548   0.00000  -0.00513  -0.00444   4.21786
    X9       -0.70526  -0.00805   0.00000  -0.05815  -0.05850  -0.76376
    Y9        2.24683   0.00109   0.00000   0.06122   0.06167   2.30850
    Z9        5.25431  -0.00479   0.00000   0.04876   0.04926   5.30357
   X10       -1.87577  -0.00315   0.00000   0.04443   0.04387  -1.83190
   Y10       -1.29340  -0.00319   0.00000  -0.00102  -0.00043  -1.29383
   Z10        3.75733   0.00285   0.00000   0.06844   0.06875   3.82608
   X11       -3.44738   0.00267   0.00000  -0.08726  -0.08800  -3.53537
   Y11       -0.79910  -0.00700   0.00000  -0.05246  -0.05148  -0.85058
   Z11       -0.76971  -0.00652   0.00000  -0.13452  -0.13411  -0.90382
         Item               Value     Threshold  Converged?
 Maximum Force            0.025859     0.000450     NO 
 RMS     Force            0.010411     0.000300     NO 
 Maximum Displacement     0.134108     0.001800     NO 
 RMS     Displacement     0.052337     0.001200     NO 
 Predicted change in Energy=-4.745271D-03
 GradGradGradGradGradGradGradGradGradGradGradGradGradGradGradGradGradGrad

 1\1\GINC-MU01\Force\RHF\6-31G(d)\C3F8\LBL8\15-Sep-2025\0\\# hf/6-31G(d
 ) force\\Force calculation\\0,1\C,-2.67352246,0.48183996,0.00533844\C,
 -2.14037803,1.1819887,1.2503186\C,-0.83427439,0.58412087,1.70353913\F,
 0.07027469,0.69735005,0.76293123\F,-2.85849582,1.33249654,-0.98025149\
 F,-3.81135818,-0.12755025,0.25243725\F,-1.96911644,2.48056863,0.994776
 37\F,-3.03761157,1.08999909,2.23434741\F,-0.37320869,1.1889701,2.78045
 982\F,-0.99261363,-0.68443974,1.98829437\F,-1.82427243,-0.42286602,-0.
 4073122\\Version=ES64L-G16RevA.03\State=1-A\HF=-909.1161336\RMSD=6.626
 e-09\RMSF=1.041e-02\Dipole=0.0000317,-0.0136424,-0.0168755\Quadrupole=
 0.0948057,-0.0196905,-0.0751152,-0.0784968,0.0010483,-0.0798601\PG=C01
  [X(C3F8)]\\@


 IF YOU GIVE EVERYONE A PIECE OF YOUR MIND,
 PRETTY SOON IT WILL BE ALL GONE.
 Job cpu time:       0 days  0 hours  0 minutes  7.7 seconds.
 Elapsed time:       0 days  0 hours  0 minutes  7.7 seconds.
 File lengths (MBytes):  RWF=     28 Int=      0 D2E=      0 Chk=      4 Scr=      2
 Normal termination of Gaussian 16 at Mon Sep 15 21:48:54 2025.
