 Entering Gaussian System, Link 0=g16
 Input=gauss.gjf
 Output=gauss.log
 Initial command:
 /software/Applications/gaussian/G16.A03.AVX/g16/l1.exe "/home/lbl8/code/hartree-fock_geomopt-rev-3/example/Gau-3228301.inp" -scrdir="/home/lbl8/code/hartree-fock_geomopt-rev-3/example/"
 Entering Link 1 = /software/Applications/gaussian/G16.A03.AVX/g16/l1.exe PID=   3228303.
  
 Copyright (c) 1988,1990,1992,1993,1995,1998,2003,2009,2016,
            Gaussian, Inc.  All Rights Reserved.
  
 This is part of the Gaussian(R) 16 program.  It is based on
 the Gaussian(R) 09 system (copyright 2009, Gaussian, Inc.),
 the Gaussian(R) 03 system (copyright 2003, Gaussian, Inc.),
 the Gaussian(R) 98 system (copyright 1998, Gaussian, Inc.),
 the Gaussian(R) 94 system (copyright 1995, Gaussian, Inc.),
 the Gaussian 92(TM) system (copyright 1992, Gaussian, Inc.),
 the Gaussian 90(TM) system (copyright 1990, Gaussian, Inc.),
 the Gaussian 88(TM) system (copyright 1988, Gaussian, Inc.),
 the Gaussian 86(TM) system (copyright 1986, Carnegie Mellon
 University), and the Gaussian 82(TM) system (copyright 1983,
 Carnegie Mellon University). Gaussian is a federally registered
 trademark of Gaussian, Inc.
  
 This software contains proprietary and confidential information,
 including trade secrets, belonging to Gaussian, Inc.
  
 This software is provided under written license and may be
 used, copied, transmitted, or stored only in accord with that
 written license.
  
 The following legend is applicable only to US Government
 contracts under FAR:
  
                    RESTRICTED RIGHTS LEGEND
  
 Use, reproduction and disclosure by the US Government is
 subject to restrictions as set forth in subparagraphs (a)
 and (c) of the Commercial Computer Software - Restricted
 Rights clause in FAR 52.227-19.
  
 Gaussian, Inc.
 340 Quinnipiac St., Bldg. 40, Wallingford CT 06492
  
  
 ---------------------------------------------------------------
 Warning -- This program may not be used in any manner that
 competes with the business of Gaussian, Inc. or will provide
 assistance to any competitor of Gaussian, Inc.  The licensee
 of this program is prohibited from giving any competitor of
 Gaussian, Inc. access to this program.  By using this program,
 the user acknowledges that Gaussian, Inc. is engaged in the
 business of creating and licensing software in the field of
 computational chemistry and represents and warrants to the
 licensee that it is not a competitor of Gaussian, Inc. and that
 it will not use this program in any manner prohibited above.
 ---------------------------------------------------------------
  

 Cite this work as:
 Gaussian 16, Revision A.03,
 M. J. Frisch, G. W. Trucks, H. B. Schlegel, G. E. Scuseria, 
 M. A. Robb, J. R. Cheeseman, G. Scalmani, V. Barone, 
 G. A. Petersson, H. Nakatsuji, X. Li, M. Caricato, A. V. Marenich, 
 J. Bloino, B. G. Janesko, R. Gomperts, B. Mennucci, H. P. Hratchian, 
 J. V. Ortiz, A. F. Izmaylov, J. L. Sonnenberg, D. Williams-Young, 
 F. Ding, F. Lipparini, F. Egidi, J. Goings, B. Peng, A. Petrone, 
 T. Henderson, D. Ranasinghe, V. G. Zakrzewski, J. Gao, N. Rega, 
 G. Zheng, W. Liang, M. Hada, M. Ehara, K. Toyota, R. Fukuda, 
 J. Hasegawa, M. Ishida, T. Nakajima, Y. Honda, O. Kitao, H. Nakai, 
 T. Vreven, K. Throssell, J. A. Montgomery, Jr., J. E. Peralta, 
 F. Ogliaro, M. J. Bearpark, J. J. Heyd, E. N. Brothers, K. N. Kudin, 
 V. N. Staroverov, T. A. Keith, R. Kobayashi, J. Normand, 
 K. Raghavachari, A. P. Rendell, J. C. Burant, S. S. Iyengar, 
 J. Tomasi, M. Cossi, J. M. Millam, M. Klene, C. Adamo, R. Cammi, 
 J. W. Ochterski, R. L. Martin, K. Morokuma, O. Farkas, 
 J. B. Foresman, and D. J. Fox, Gaussian, Inc., Wallingford CT, 2016.
 
 ******************************************
 Gaussian 16:  ES64L-G16RevA.03 25-Dec-2016
                15-Sep-2025 
 ******************************************
 %chk=gauss.chk
 -------------------
 # hf/6-31G(d) force
 -------------------
 1/10=7,30=1,38=1/1,3;
 2/12=2,17=6,18=5,40=1/2;
 3/5=1,6=6,7=1,11=9,25=1,30=1,71=1/1,2,3;
 4//1;
 5/5=2,38=5/2;
 6/7=2,8=2,9=2,10=2,28=1/1;
 7/29=1/1,2,3,16;
 1/10=7,30=1/3;
 99//99;
 -----------------
 Force calculation
 -----------------
 Symbolic Z-matrix:
 Charge =  0 Multiplicity = 1
 C                    -2.71312   0.4733   -0.03244 
 C                    -2.1236    1.1645    1.2316 
 C                    -0.79995   0.58069   1.73609 
 F                     0.1365    0.7157    0.82872 
 F                    -2.93034   1.35851  -0.97117 
 F                    -3.84386  -0.11856   0.25918 
 F                    -1.90922   2.4439    0.96411 
 F                    -3.00181   1.0772    2.2199 
 F                    -0.43896   1.22987   2.81626 
 F                    -0.93904  -0.69088   2.03254 
 F                    -1.88118  -0.43174  -0.49991 
 

 GradGradGradGradGradGradGradGradGradGradGradGradGradGradGradGradGradGrad
 Berny optimization.
 Initialization pass.
 Trust Radius=3.00D-01 FncErr=1.00D-07 GrdErr=1.00D-07 EigMax=2.50D+02 EigMin=1.00D-04
 Number of steps in this run=      2 maximum allowed number of steps=      2.
 GradGradGradGradGradGradGradGradGradGradGradGradGradGradGradGradGradGrad

                          Input orientation:                          
 ---------------------------------------------------------------------
 Center     Atomic      Atomic             Coordinates (Angstroms)
 Number     Number       Type             X           Y           Z
 ---------------------------------------------------------------------
      1          6           0       -2.713124    0.473300   -0.032444
      2          6           0       -2.123604    1.164497    1.231595
      3          6           0       -0.799951    0.580685    1.736085
      4          9           0        0.136498    0.715704    0.828724
      5          9           0       -2.930336    1.358511   -0.971171
      6          9           0       -3.843857   -0.118560    0.259181
      7          9           0       -1.909216    2.443896    0.964111
      8          9           0       -3.001807    1.077195    2.219903
      9          9           0       -0.438960    1.229870    2.816264
     10          9           0       -0.939041   -0.690880    2.032542
     11          9           0       -1.881178   -0.431740   -0.499911
 ---------------------------------------------------------------------
                    Distance matrix (angstroms):
                    1          2          3          4          5
     1  C    0.000000
     2  C    1.556626   0.000000
     3  C    2.607577   1.532124   0.000000
     4  F    2.986757   2.339184   1.310905   0.000000
     5  F    1.308430   2.353856   3.531684   3.613627   0.000000
     6  F    1.309160   2.356077   3.454787   4.106532   2.128386
     7  F    2.350029   1.324527   2.301731   2.681404   2.442553
     8  F    2.349701   1.324996   2.308413   3.451813   3.204248
     9  F    3.722815   2.313757   1.310931   2.132096   4.535214
    10  F    2.960888   2.342463   1.313054   2.141131   4.145788
    11  F    1.315202   2.367458   2.682114   2.674494   2.127867
                    6          7          8          9         10
     6  F    0.000000
     7  F    3.287239   0.000000
     8  F    2.446080   2.153750   0.000000
     9  F    4.466571   2.658191   2.635743   0.000000
    10  F    3.451133   3.451030   2.723270   2.133912   0.000000
    11  F    2.127537   3.226985   3.306068   3.979693   2.714424
                   11
    11  F    0.000000
 Stoichiometry    C3F8
 Framework group  C1[X(C3F8)]
 Deg. of freedom    27
 Full point group                 C1      NOp   1
 Largest Abelian subgroup         C1      NOp   1
 Largest concise Abelian subgroup C1      NOp   1
                         Standard orientation:                         
 ---------------------------------------------------------------------
 Center     Atomic      Atomic             Coordinates (Angstroms)
 Number     Number       Type             X           Y           Z
 ---------------------------------------------------------------------
      1          6           0        1.315032    0.211888   -0.000380
      2          6           0       -0.015941   -0.595324    0.001499
      3          6           0       -1.292232    0.252309    0.000442
      4          9           0       -1.358530    0.980441   -1.087630
      5          9           0        2.068589   -0.162316   -1.002433
      6          9           0        1.968578    0.012809    1.116377
      7          9           0       -0.056766   -1.363746   -1.076570
      8          9           0       -0.049953   -1.368241    1.077165
      9          9           0       -2.328968   -0.549187    0.036790
     10          9           0       -1.326387    1.037233    1.052507
     11          9           0        1.078864    1.500424   -0.117246
 ---------------------------------------------------------------------
 Rotational constants (GHZ):           1.7143125           0.9716783           0.9128411
 Standard basis: 6-31G(d) (6D, 7F)
 There are   165 symmetry adapted cartesian basis functions of A   symmetry.
 There are   165 symmetry adapted basis functions of A   symmetry.
   165 basis functions,   308 primitive gaussians,   165 cartesian basis functions
    45 alpha electrons       45 beta electrons
       nuclear repulsion energy       805.9231690252 Hartrees.
 NAtoms=   11 NActive=   11 NUniq=   11 SFac= 1.00D+00 NAtFMM=   60 NAOKFM=F Big=F
 Integral buffers will be    131072 words long.
 Raffenetti 1 integral format.
 Two-electron integral symmetry is turned on.
 One-electron integrals computed using PRISM.
 NBasis=   165 RedAO= T EigKep=  8.35D-04  NBF=   165
 NBsUse=   165 1.00D-06 EigRej= -1.00D+00 NBFU=   165
 ExpMin= 1.69D-01 ExpMax= 7.00D+03 ExpMxC= 1.05D+03 IAcc=3 IRadAn=         5 AccDes= 0.00D+00
 Harris functional with IExCor=  205 and IRadAn=       5 diagonalized for initial guess.
 HarFok:  IExCor=  205 AccDes= 0.00D+00 IRadAn=         5 IDoV= 1 UseB2=F ITyADJ=14
 ICtDFT=  3500011 ScaDFX=  1.000000  1.000000  1.000000  1.000000
 FoFCou: FMM=F IPFlag=           0 FMFlag=      100000 FMFlg1=           0
         NFxFlg=           0 DoJE=T BraDBF=F KetDBF=T FulRan=T
         wScrn=  0.000000 ICntrl=       500 IOpCl=  0 I1Cent=   200000004 NGrid=           0
         NMat0=    1 NMatS0=      1 NMatT0=    0 NMatD0=    1 NMtDS0=    0 NMtDT0=    0
 Petite list used in FoFCou.
 Keep R1 ints in memory in canonical form, NReq=96071382.
 Requested convergence on RMS density matrix=1.00D-08 within 128 cycles.
 Requested convergence on MAX density matrix=1.00D-06.
 Requested convergence on             energy=1.00D-06.
 No special actions if energy rises.
 SCF Done:  E(RHF) =  -909.120102297     A.U. after   11 cycles
            NFock= 11  Conv=0.54D-08     -V/T= 2.0019

 **********************************************************************

            Population analysis using the SCF density.

 **********************************************************************

 Orbital symmetries:
       Occupied  (A) (A) (A) (A) (A) (A) (A) (A) (A) (A) (A) (A)
                 (A) (A) (A) (A) (A) (A) (A) (A) (A) (A) (A) (A)
                 (A) (A) (A) (A) (A) (A) (A) (A) (A) (A) (A) (A)
                 (A) (A) (A) (A) (A) (A) (A) (A) (A)
       Virtual   (A) (A) (A) (A) (A) (A) (A) (A) (A) (A) (A) (A)
                 (A) (A) (A) (A) (A) (A) (A) (A) (A) (A) (A) (A)
                 (A) (A) (A) (A) (A) (A) (A) (A) (A) (A) (A) (A)
                 (A) (A) (A) (A) (A) (A) (A) (A) (A) (A) (A) (A)
                 (A) (A) (A) (A) (A) (A) (A) (A) (A) (A) (A) (A)
                 (A) (A) (A) (A) (A) (A) (A) (A) (A) (A) (A) (A)
                 (A) (A) (A) (A) (A) (A) (A) (A) (A) (A) (A) (A)
                 (A) (A) (A) (A) (A) (A) (A) (A) (A) (A) (A) (A)
                 (A) (A) (A) (A) (A) (A) (A) (A) (A) (A) (A) (A)
                 (A) (A) (A) (A) (A) (A) (A) (A) (A) (A) (A) (A)
 The electronic state is 1-A.
 Alpha  occ. eigenvalues --  -26.37901 -26.37797 -26.37775 -26.37665 -26.37638
 Alpha  occ. eigenvalues --  -26.37542 -26.37324 -26.37317 -11.54932 -11.54543
 Alpha  occ. eigenvalues --  -11.48064  -1.78912  -1.77818  -1.73207  -1.68304
 Alpha  occ. eigenvalues --   -1.67781  -1.67640  -1.67346  -1.66048  -1.12099
 Alpha  occ. eigenvalues --   -1.02503  -0.95535  -0.90986  -0.88834  -0.87610
 Alpha  occ. eigenvalues --   -0.86559  -0.85773  -0.85306  -0.81366  -0.76275
 Alpha  occ. eigenvalues --   -0.75318  -0.74781  -0.74033  -0.73940  -0.72724
 Alpha  occ. eigenvalues --   -0.71433  -0.70168  -0.70122  -0.68386  -0.68138
 Alpha  occ. eigenvalues --   -0.68068  -0.67192  -0.67024  -0.63182  -0.56032
 Alpha virt. eigenvalues --    0.24249   0.25113   0.35745   0.39776   0.42288
 Alpha virt. eigenvalues --    0.44566   0.46649   0.51100   0.52301   0.56277
 Alpha virt. eigenvalues --    0.64583   0.65019   0.68317   0.68986   0.71370
 Alpha virt. eigenvalues --    0.76636   0.77481   0.85934   0.87244   0.91197
 Alpha virt. eigenvalues --    1.03865   1.14388   1.20508   1.23974   1.25053
 Alpha virt. eigenvalues --    1.31627   1.33121   1.34251   1.34618   1.36019
 Alpha virt. eigenvalues --    1.40195   1.48164   1.51452   1.52409   1.53041
 Alpha virt. eigenvalues --    1.56440   1.56774   1.59429   1.61032   1.61720
 Alpha virt. eigenvalues --    1.63101   1.63377   1.64719   1.65254   1.66639
 Alpha virt. eigenvalues --    1.67565   1.68784   1.71092   1.73601   1.78587
 Alpha virt. eigenvalues --    1.79590   1.80762   1.84616   1.89187   1.93333
 Alpha virt. eigenvalues --    1.96894   1.97517   1.98716   2.02874   2.05795
 Alpha virt. eigenvalues --    2.05920   2.07779   2.08368   2.09428   2.10559
 Alpha virt. eigenvalues --    2.13161   2.14727   2.18179   2.21041   2.26896
 Alpha virt. eigenvalues --    2.27533   2.30072   2.31119   2.32474   2.32822
 Alpha virt. eigenvalues --    2.37807   2.38191   2.38658   2.38990   2.40382
 Alpha virt. eigenvalues --    2.40678   2.44473   2.45938   2.50984   2.51239
 Alpha virt. eigenvalues --    2.56642   2.66217   2.70381   2.75809   2.78762
 Alpha virt. eigenvalues --    2.86413   2.91577   2.97920   2.98515   3.03664
 Alpha virt. eigenvalues --    3.09496   3.14814   3.16613   3.27394   3.28576
 Alpha virt. eigenvalues --    3.31905   3.37023   3.40300   3.41199   3.42874
 Alpha virt. eigenvalues --    3.44935   3.49866   3.50790   3.53048   4.45179
 Alpha virt. eigenvalues --    4.51934   4.72178   4.81302   5.09544   5.27062
 Alpha virt. eigenvalues --    5.48941   5.54965   6.15435   6.27117   7.47394
          Condensed to atoms (all electrons):
               1          2          3          4          5          6
     1  C    3.758547   0.365293  -0.068504   0.006304   0.290919   0.291515
     2  C    0.365293   4.443212   0.384594  -0.038939  -0.027660  -0.029792
     3  C   -0.068504   0.384594   3.756834   0.278714   0.001091   0.000957
     4  F    0.006304  -0.038939   0.278714   9.162222  -0.000049   0.000001
     5  F    0.290919  -0.027660   0.001091  -0.000049   9.142670  -0.035153
     6  F    0.291515  -0.029792   0.000957   0.000001  -0.035153   9.143477
     7  F   -0.016729   0.214493  -0.019959   0.001133  -0.001050   0.000282
     8  F   -0.017073   0.215858  -0.019659   0.000361   0.000226  -0.000821
     9  F    0.001470  -0.026967   0.295917  -0.034119  -0.000001  -0.000001
    10  F    0.008562  -0.040618   0.278632  -0.031617   0.000001  -0.000097
    11  F    0.286217  -0.036999   0.012481  -0.001157  -0.035445  -0.035624
               7          8          9         10         11
     1  C   -0.016729  -0.017073   0.001470   0.008562   0.286217
     2  C    0.214493   0.215858  -0.026967  -0.040618  -0.036999
     3  C   -0.019959  -0.019659   0.295917   0.278632   0.012481
     4  F    0.001133   0.000361  -0.034119  -0.031617  -0.001157
     5  F   -0.001050   0.000226  -0.000001   0.000001  -0.035445
     6  F    0.000282  -0.000821  -0.000001  -0.000097  -0.035624
     7  F    9.211517  -0.029263   0.000586   0.000368   0.000313
     8  F   -0.029263   9.209952   0.000610   0.001037   0.000335
     9  F    0.000586   0.000610   9.140208  -0.033947   0.000000
    10  F    0.000368   0.001037  -0.033947   9.163772  -0.001295
    11  F    0.000313   0.000335   0.000000  -0.001295   9.156128
 Mulliken charges:
               1
     1  C    1.093479
     2  C    0.577526
     3  C    1.098901
     4  F   -0.342854
     5  F   -0.335550
     6  F   -0.334744
     7  F   -0.361691
     8  F   -0.361562
     9  F   -0.343756
    10  F   -0.344797
    11  F   -0.344953
 Sum of Mulliken charges =  -0.00000
 Mulliken charges with hydrogens summed into heavy atoms:
               1
     1  C    1.093479
     2  C    0.577526
     3  C    1.098901
     4  F   -0.342854
     5  F   -0.335550
     6  F   -0.334744
     7  F   -0.361691
     8  F   -0.361562
     9  F   -0.343756
    10  F   -0.344797
    11  F   -0.344953
 Electronic spatial extent (au):  <R**2>=           1289.4322
 Charge=             -0.0000 electrons
 Dipole moment (field-independent basis, Debye):
    X=              0.0813    Y=              0.0793    Z=             -0.0064  Tot=              0.1138
 Quadrupole moment (field-independent basis, Debye-Ang):
   XX=            -56.9628   YY=            -57.2699   ZZ=            -57.2623
   XY=             -0.2151   XZ=             -0.0050   YZ=             -0.0095
 Traceless Quadrupole moment (field-independent basis, Debye-Ang):
   XX=              0.2022   YY=             -0.1049   ZZ=             -0.0973
   XY=             -0.2151   XZ=             -0.0050   YZ=             -0.0095
 Octapole moment (field-independent basis, Debye-Ang**2):
  XXX=              0.1152  YYY=              0.2769  ZZZ=             -0.2424  XYY=              0.8845
  XXY=              1.4079  XXZ=              0.0190  XZZ=             -0.9824  YZZ=              1.2647
  YYZ=              0.1274  XYZ=             -0.1621
 Hexadecapole moment (field-independent basis, Debye-Ang**3):
 XXXX=           -675.3793 YYYY=           -287.4885 ZZZZ=           -227.0984 XXXY=             -1.8135
 XXXZ=              0.4276 YYYX=             -1.2533 YYYZ=              0.1169 ZZZX=             -0.5388
 ZZZY=             -0.0580 XXYY=           -157.5898 XXZZ=           -154.1028 YYZZ=            -88.0157
 XXYZ=             -0.2701 YYXZ=              0.3321 ZZXY=              2.2909
 N-N= 8.059231690252D+02 E-N=-3.778325517190D+03  KE= 9.074178093786D+02
 Calling FoFJK, ICntrl=      2127 FMM=F ISym2X=0 I1Cent= 0 IOpClX= 0 NMat=1 NMatS=1 NMatT=0.
 ***** Axes restored to original set *****
 -------------------------------------------------------------------
 Center     Atomic                   Forces (Hartrees/Bohr)
 Number     Number              X              Y              Z
 -------------------------------------------------------------------
      1        6           0.000037454   -0.000521207    0.000322405
      2        6          -0.000080971    0.000006279    0.000260382
      3        6          -0.000348572   -0.000961309    0.000794668
      4        9           0.000392473    0.000220568   -0.000150173
      5        9          -0.000426094    0.000177756   -0.000292850
      6        9           0.000355316   -0.000204678    0.000109009
      7        9           0.000085883    0.000366861   -0.000254573
      8        9           0.000234357    0.000108473   -0.000244240
      9        9           0.000229840   -0.000206073    0.000124940
     10        9          -0.000399150    0.000862482   -0.000185559
     11        9          -0.000080536    0.000150849   -0.000484009
 -------------------------------------------------------------------
 Cartesian Forces:  Max     0.000961309 RMS     0.000368364

 GradGradGradGradGradGradGradGradGradGradGradGradGradGradGradGradGradGrad
 Berny optimization.
 Search for a local minimum.
 Step number   1 out of a maximum of    2
 All quantities printed in internal units (Hartrees-Bohrs-Radians)
 Second derivative matrix not updated -- first step.
 ITU=  0
     Eigenvalues ---    0.00158   0.00280   0.01360   0.03378   0.05302
     Eigenvalues ---    0.05315   0.05385   0.06833   0.08545   0.09216
     Eigenvalues ---    0.12467   0.14481   0.15155   0.15678   0.18258
     Eigenvalues ---    0.21466   0.24587   0.36299   0.64918   1.02241
     Eigenvalues ---    1.20546   1.30268   1.48488   1.61629   1.64625
     Eigenvalues ---    1.67722   1.73921
 Quadratic step=4.060D-01 exceeds max=3.000D-01 adjusted using Lamda=-6.178D-04.
 Angle between NR and scaled steps=   3.13 degrees.
 Angle between quadratic step and forces=  68.35 degrees.
 Linear search not attempted -- first point.
 B after Tr=    -0.000147    0.000504   -0.000398
         Rot=    1.000000   -0.000027   -0.000059   -0.000078 Ang=  -0.01 deg.
 Variable       Old X    -DE/DX   Delta X   Delta X   Delta X     New X
                                 (Linear)    (Quad)   (Total)
    X1       -5.12706   0.00004   0.00000   0.00320   0.00290  -5.12416
    Y1        0.89441  -0.00052   0.00000   0.00230   0.00201   0.89642
    Z1       -0.06131   0.00032   0.00000  -0.00381  -0.00356  -0.06487
    X2       -4.01303  -0.00008   0.00000   0.01705   0.01683  -3.99620
    Y2        2.20058   0.00001   0.00000   0.02098   0.02073   2.22131
    Z2        2.32738   0.00026   0.00000  -0.01824  -0.01805   2.30933
    X3       -1.51169  -0.00035   0.00000  -0.01170  -0.01163  -1.52331
    Y3        1.09734  -0.00096   0.00000  -0.01487  -0.01478   1.08256
    Z3        3.28073   0.00079   0.00000   0.01690   0.01674   3.29747
    X4        0.25794   0.00039   0.00000   0.01602   0.01585   0.27380
    Y4        1.35248   0.00022   0.00000  -0.04753  -0.04707   1.30541
    Z4        1.56606  -0.00015   0.00000   0.03970   0.03934   1.60540
    X5       -5.53753  -0.00043   0.00000  -0.14510  -0.14586  -5.68339
    Y5        2.56721   0.00018   0.00000   0.00942   0.00914   2.57635
    Z5       -1.83525  -0.00029   0.00000   0.03636   0.03677  -1.79848
    X6       -7.26384   0.00036   0.00000   0.07960   0.07957  -7.18426
    Y6       -0.22405  -0.00020   0.00000  -0.11526  -0.11591  -0.33995
    Z6        0.48978   0.00011   0.00000   0.05255   0.05297   0.54275
    X7       -3.60790   0.00009   0.00000   0.06110   0.06044  -3.54745
    Y7        4.61829   0.00037   0.00000   0.00725   0.00711   4.62540
    Z7        1.82191  -0.00025   0.00000  -0.05186  -0.05159   1.77031
    X8       -5.67259   0.00023   0.00000   0.00463   0.00464  -5.66795
    Y8        2.03560   0.00011   0.00000   0.07643   0.07582   2.11143
    Z8        4.19501  -0.00024   0.00000  -0.02511  -0.02473   4.17028
    X9       -0.82951   0.00023   0.00000  -0.01549  -0.01537  -0.84488
    Y9        2.32412  -0.00021   0.00000  -0.02528  -0.02519   2.29892
    Z9        5.32197   0.00012   0.00000   0.02455   0.02437   5.34634
   X10       -1.77453  -0.00040   0.00000  -0.06452  -0.06401  -1.83855
   Y10       -1.30557   0.00086   0.00000  -0.00760  -0.00759  -1.31316
   Z10        3.84095  -0.00019   0.00000   0.01740   0.01715   3.85810
   X11       -3.55491  -0.00008   0.00000   0.05677   0.05662  -3.49829
   Y11       -0.81587   0.00015   0.00000   0.09570   0.09572  -0.72015
   Z11       -0.94470  -0.00048   0.00000  -0.08937  -0.08940  -1.03410
         Item               Value     Threshold  Converged?
 Maximum Force            0.000961     0.000450     NO 
 RMS     Force            0.000368     0.000300     NO 
 Maximum Displacement     0.145855     0.001800     NO 
 RMS     Displacement     0.052228     0.001200     NO 
 Predicted change in Energy=-1.449127D-04
 GradGradGradGradGradGradGradGradGradGradGradGradGradGradGradGradGradGrad

 1\1\GINC-MU01\Force\RHF\6-31G(d)\C3F8\LBL8\15-Sep-2025\0\\# hf/6-31G(d
 ) force\\Force calculation\\0,1\C,-2.71312396,0.47329995,-0.03244416\C
 ,-2.12360381,1.16449735,1.23159536\C,-0.79995124,0.58068524,1.73608541
 \F,0.13649827,0.71570356,0.82872407\F,-2.93033591,1.35851085,-0.971171
 44\F,-3.84385739,-0.11855966,0.2591811\F,-1.90921608,2.44389582,0.9641
 1087\F,-3.00180721,1.07719513,2.21990292\F,-0.43896038,1.22987013,2.81
 626352\F,-0.93904113,-0.69088017,2.03254247\F,-1.88117816,-0.43174028,
 -0.49991117\\Version=ES64L-G16RevA.03\State=1-A\HF=-909.1201023\RMSD=5
 .368e-09\RMSF=3.684e-04\Dipole=-0.0074416,-0.0241257,-0.0369565\Quadru
 pole=0.1530891,-0.0953669,-0.0577222,-0.0772776,0.109321,-0.0820551\PG
 =C01 [X(C3F8)]\\@


 ALL OUR THINKING ABOUT NATURE MUST NECESSARILY MOVE IN CIRCLES OR SPIRALS;
 FOR WE CAN ONLY UNDERSTAND NATURE IF WE THINK ABOUT HER, AND WE CAN ONLY
 THINK BECAUSE OUR BRAIN IS BUILT IN ACCORDANCE WITH NATURE'S LAWS.

                                             -- TIMOTHY FERRIS, "GALAXIES"
 Job cpu time:       0 days  0 hours  0 minutes  7.6 seconds.
 Elapsed time:       0 days  0 hours  0 minutes  7.6 seconds.
 File lengths (MBytes):  RWF=     28 Int=      0 D2E=      0 Chk=      4 Scr=      2
 Normal termination of Gaussian 16 at Mon Sep 15 21:51:30 2025.
