 Entering Gaussian System, Link 0=g16
 Input=gauss.gjf
 Output=gauss.log
 Initial command:
 /software/Applications/gaussian/G16.A03.AVX/g16/l1.exe "/home/lbl8/code/hartree-fock_geomopt-rev-3/example/Gau-3225774.inp" -scrdir="/home/lbl8/code/hartree-fock_geomopt-rev-3/example/"
 Entering Link 1 = /software/Applications/gaussian/G16.A03.AVX/g16/l1.exe PID=   3225778.
  
 Copyright (c) 1988,1990,1992,1993,1995,1998,2003,2009,2016,
            Gaussian, Inc.  All Rights Reserved.
  
 This is part of the Gaussian(R) 16 program.  It is based on
 the Gaussian(R) 09 system (copyright 2009, Gaussian, Inc.),
 the Gaussian(R) 03 system (copyright 2003, Gaussian, Inc.),
 the Gaussian(R) 98 system (copyright 1998, Gaussian, Inc.),
 the Gaussian(R) 94 system (copyright 1995, Gaussian, Inc.),
 the Gaussian 92(TM) system (copyright 1992, Gaussian, Inc.),
 the Gaussian 90(TM) system (copyright 1990, Gaussian, Inc.),
 the Gaussian 88(TM) system (copyright 1988, Gaussian, Inc.),
 the Gaussian 86(TM) system (copyright 1986, Carnegie Mellon
 University), and the Gaussian 82(TM) system (copyright 1983,
 Carnegie Mellon University). Gaussian is a federally registered
 trademark of Gaussian, Inc.
  
 This software contains proprietary and confidential information,
 including trade secrets, belonging to Gaussian, Inc.
  
 This software is provided under written license and may be
 used, copied, transmitted, or stored only in accord with that
 written license.
  
 The following legend is applicable only to US Government
 contracts under FAR:
  
                    RESTRICTED RIGHTS LEGEND
  
 Use, reproduction and disclosure by the US Government is
 subject to restrictions as set forth in subparagraphs (a)
 and (c) of the Commercial Computer Software - Restricted
 Rights clause in FAR 52.227-19.
  
 Gaussian, Inc.
 340 Quinnipiac St., Bldg. 40, Wallingford CT 06492
  
  
 ---------------------------------------------------------------
 Warning -- This program may not be used in any manner that
 competes with the business of Gaussian, Inc. or will provide
 assistance to any competitor of Gaussian, Inc.  The licensee
 of this program is prohibited from giving any competitor of
 Gaussian, Inc. access to this program.  By using this program,
 the user acknowledges that Gaussian, Inc. is engaged in the
 business of creating and licensing software in the field of
 computational chemistry and represents and warrants to the
 licensee that it is not a competitor of Gaussian, Inc. and that
 it will not use this program in any manner prohibited above.
 ---------------------------------------------------------------
  

 Cite this work as:
 Gaussian 16, Revision A.03,
 M. J. Frisch, G. W. Trucks, H. B. Schlegel, G. E. Scuseria, 
 M. A. Robb, J. R. Cheeseman, G. Scalmani, V. Barone, 
 G. A. Petersson, H. Nakatsuji, X. Li, M. Caricato, A. V. Marenich, 
 J. Bloino, B. G. Janesko, R. Gomperts, B. Mennucci, H. P. Hratchian, 
 J. V. Ortiz, A. F. Izmaylov, J. L. Sonnenberg, D. Williams-Young, 
 F. Ding, F. Lipparini, F. Egidi, J. Goings, B. Peng, A. Petrone, 
 T. Henderson, D. Ranasinghe, V. G. Zakrzewski, J. Gao, N. Rega, 
 G. Zheng, W. Liang, M. Hada, M. Ehara, K. Toyota, R. Fukuda, 
 J. Hasegawa, M. Ishida, T. Nakajima, Y. Honda, O. Kitao, H. Nakai, 
 T. Vreven, K. Throssell, J. A. Montgomery, Jr., J. E. Peralta, 
 F. Ogliaro, M. J. Bearpark, J. J. Heyd, E. N. Brothers, K. N. Kudin, 
 V. N. Staroverov, T. A. Keith, R. Kobayashi, J. Normand, 
 K. Raghavachari, A. P. Rendell, J. C. Burant, S. S. Iyengar, 
 J. Tomasi, M. Cossi, J. M. Millam, M. Klene, C. Adamo, R. Cammi, 
 J. W. Ochterski, R. L. Martin, K. Morokuma, O. Farkas, 
 J. B. Foresman, and D. J. Fox, Gaussian, Inc., Wallingford CT, 2016.
 
 ******************************************
 Gaussian 16:  ES64L-G16RevA.03 25-Dec-2016
                15-Sep-2025 
 ******************************************
 %chk=gauss.chk
 -------------------
 # hf/6-31G(d) force
 -------------------
 1/10=7,30=1,38=1/1,3;
 2/12=2,17=6,18=5,40=1/2;
 3/5=1,6=6,7=1,11=9,25=1,30=1,71=1/1,2,3;
 4//1;
 5/5=2,38=5/2;
 6/7=2,8=2,9=2,10=2,28=1/1;
 7/29=1/1,2,3,16;
 1/10=7,30=1/3;
 99//99;
 -----------------
 Force calculation
 -----------------
 Symbolic Z-matrix:
 Charge =  0 Multiplicity = 1
 C                    -2.67045   0.47521   0. 
 C                    -2.15711   1.20116   1.2574 
 C                    -0.82286   0.57454   1.70317 
 F                     0.08477   0.69553   0.71116 
 F                    -2.85623   1.37118  -0.99258 
 F                    -3.84133  -0.13581   0.27965 
 F                    -1.96898   2.50827   0.97708 
 F                    -3.06488   1.07976   2.24923 
 F                    -0.37261   1.21124   2.80516 
 F                    -1.01109  -0.73245   1.98394 
 F                    -1.7638   -0.44615  -0.38934 
 

 GradGradGradGradGradGradGradGradGradGradGradGradGradGradGradGradGradGrad
 Berny optimization.
 Initialization pass.
 Trust Radius=3.00D-01 FncErr=1.00D-07 GrdErr=1.00D-07 EigMax=2.50D+02 EigMin=1.00D-04
 Number of steps in this run=      2 maximum allowed number of steps=      2.
 GradGradGradGradGradGradGradGradGradGradGradGradGradGradGradGradGradGrad

                          Input orientation:                          
 ---------------------------------------------------------------------
 Center     Atomic      Atomic             Coordinates (Angstroms)
 Number     Number       Type             X           Y           Z
 ---------------------------------------------------------------------
      1          6           0       -2.670455    0.475207    0.000000
      2          6           0       -2.157112    1.201163    1.257405
      3          6           0       -0.822855    0.574541    1.703166
      4          9           0        0.084772    0.695526    0.711161
      5          9           0       -2.856234    1.371184   -0.992578
      6          9           0       -3.841335   -0.135806    0.279648
      7          9           0       -1.968980    2.508269    0.977083
      8          9           0       -3.064878    1.079759    2.249233
      9          9           0       -0.372611    1.211239    2.805162
     10          9           0       -1.011087   -0.732454    1.983940
     11          9           0       -1.763802   -0.446148   -0.389341
 ---------------------------------------------------------------------
                    Distance matrix (angstroms):
                    1          2          3          4          5
     1  C    0.000000
     2  C    1.540000   0.000000
     3  C    2.514809   1.540000   0.000000
     4  F    2.854044   2.362223   1.350000   0.000000
     5  F    1.350000   2.362224   3.469338   3.465366   0.000000
     6  F    1.350000   2.362223   3.412069   4.036290   2.204541
     7  F    2.362223   1.350000   2.362224   2.752208   2.441259
     8  F    2.362224   1.350000   2.362223   3.526131   3.261564
     9  F    3.700103   2.362223   1.350000   2.204541   4.540572
    10  F    2.854464   2.362224   1.350000   2.204541   4.085281
    11  F    1.350000   2.362223   2.511130   2.435519   2.204541
                    6          7          8          9         10
     6  F    0.000000
     7  F    3.314100   0.000000
     8  F    2.441259   2.204541   0.000000
     9  F    4.497199   2.751827   2.752208   0.000000
    10  F    3.357216   3.526131   2.751827   2.204541   0.000000
    11  F    2.204541   3.261563   3.314100   3.858393   2.506195
                   11
    11  F    0.000000
 Stoichiometry    C3F8
 Framework group  C1[X(C3F8)]
 Deg. of freedom    27
 Full point group                 C1      NOp   1
 Largest Abelian subgroup         C1      NOp   1
 Largest concise Abelian subgroup C1      NOp   1
                         Standard orientation:                         
 ---------------------------------------------------------------------
 Center     Atomic      Atomic             Coordinates (Angstroms)
 Number     Number       Type             X           Y           Z
 ---------------------------------------------------------------------
      1          6           0       -1.257405   -0.237098    0.000000
      2          6           0        0.000000    0.652021   -0.000000
      3          6           0        1.257405   -0.237099   -0.000000
      4          9           0        1.257166   -1.016858   -1.102032
      5          9           0       -2.030732    0.077127   -1.061002
      6          9           0       -1.952377   -0.033681    1.139357
      7          9           0       -0.000001    1.431444   -1.102271
      8          9           0        0.000001    1.431444    1.102270
      9          9           0        2.359675    0.542324   -0.000476
     10          9           0        1.257643   -1.016185    1.102508
     11          9           0       -0.891374   -1.534165   -0.078353
 ---------------------------------------------------------------------
 Rotational constants (GHZ):           1.6171789           0.9945203           0.9295636
 Standard basis: 6-31G(d) (6D, 7F)
 There are   165 symmetry adapted cartesian basis functions of A   symmetry.
 There are   165 symmetry adapted basis functions of A   symmetry.
   165 basis functions,   308 primitive gaussians,   165 cartesian basis functions
    45 alpha electrons       45 beta electrons
       nuclear repulsion energy       799.3718400233 Hartrees.
 NAtoms=   11 NActive=   11 NUniq=   11 SFac= 1.00D+00 NAtFMM=   60 NAOKFM=F Big=F
 Integral buffers will be    131072 words long.
 Raffenetti 1 integral format.
 Two-electron integral symmetry is turned on.
 One-electron integrals computed using PRISM.
 NBasis=   165 RedAO= T EigKep=  8.14D-04  NBF=   165
 NBsUse=   165 1.00D-06 EigRej= -1.00D+00 NBFU=   165
 ExpMin= 1.69D-01 ExpMax= 7.00D+03 ExpMxC= 1.05D+03 IAcc=3 IRadAn=         5 AccDes= 0.00D+00
 Harris functional with IExCor=  205 and IRadAn=       5 diagonalized for initial guess.
 HarFok:  IExCor=  205 AccDes= 0.00D+00 IRadAn=         5 IDoV= 1 UseB2=F ITyADJ=14
 ICtDFT=  3500011 ScaDFX=  1.000000  1.000000  1.000000  1.000000
 FoFCou: FMM=F IPFlag=           0 FMFlag=      100000 FMFlg1=           0
         NFxFlg=           0 DoJE=T BraDBF=F KetDBF=T FulRan=T
         wScrn=  0.000000 ICntrl=       500 IOpCl=  0 I1Cent=   200000004 NGrid=           0
         NMat0=    1 NMatS0=      1 NMatT0=    0 NMatD0=    1 NMtDS0=    0 NMtDT0=    0
 Petite list used in FoFCou.
 Keep R1 ints in memory in canonical form, NReq=96071382.
 Requested convergence on RMS density matrix=1.00D-08 within 128 cycles.
 Requested convergence on MAX density matrix=1.00D-06.
 Requested convergence on             energy=1.00D-06.
 No special actions if energy rises.
 SCF Done:  E(RHF) =  -909.103816468     A.U. after   11 cycles
            NFock= 11  Conv=0.72D-08     -V/T= 2.0027

 **********************************************************************

            Population analysis using the SCF density.

 **********************************************************************

 Orbital symmetries:
       Occupied  (A) (A) (A) (A) (A) (A) (A) (A) (A) (A) (A) (A)
                 (A) (A) (A) (A) (A) (A) (A) (A) (A) (A) (A) (A)
                 (A) (A) (A) (A) (A) (A) (A) (A) (A) (A) (A) (A)
                 (A) (A) (A) (A) (A) (A) (A) (A) (A)
       Virtual   (A) (A) (A) (A) (A) (A) (A) (A) (A) (A) (A) (A)
                 (A) (A) (A) (A) (A) (A) (A) (A) (A) (A) (A) (A)
                 (A) (A) (A) (A) (A) (A) (A) (A) (A) (A) (A) (A)
                 (A) (A) (A) (A) (A) (A) (A) (A) (A) (A) (A) (A)
                 (A) (A) (A) (A) (A) (A) (A) (A) (A) (A) (A) (A)
                 (A) (A) (A) (A) (A) (A) (A) (A) (A) (A) (A) (A)
                 (A) (A) (A) (A) (A) (A) (A) (A) (A) (A) (A) (A)
                 (A) (A) (A) (A) (A) (A) (A) (A) (A) (A) (A) (A)
                 (A) (A) (A) (A) (A) (A) (A) (A) (A) (A) (A) (A)
                 (A) (A) (A) (A) (A) (A) (A) (A) (A) (A) (A) (A)
 The electronic state is 1-A.
 Alpha  occ. eigenvalues --  -26.38341 -26.38168 -26.38048 -26.37964 -26.37917
 Alpha  occ. eigenvalues --  -26.37910 -26.37871 -26.37853 -11.56193 -11.56102
 Alpha  occ. eigenvalues --  -11.49513  -1.76722  -1.75110  -1.72004  -1.67384
 Alpha  occ. eigenvalues --   -1.67042  -1.66536  -1.66199  -1.65400  -1.13418
 Alpha  occ. eigenvalues --   -1.02142  -0.94534  -0.89393  -0.88110  -0.86470
 Alpha  occ. eigenvalues --   -0.85112  -0.84141  -0.83890  -0.80406  -0.75870
 Alpha  occ. eigenvalues --   -0.75056  -0.74313  -0.73593  -0.73241  -0.72166
 Alpha  occ. eigenvalues --   -0.70985  -0.70336  -0.70060  -0.68613  -0.68459
 Alpha  occ. eigenvalues --   -0.67666  -0.67365  -0.67059  -0.64196  -0.57011
 Alpha virt. eigenvalues --    0.21611   0.23355   0.32964   0.36039   0.37447
 Alpha virt. eigenvalues --    0.38838   0.43767   0.47451   0.48988   0.52871
 Alpha virt. eigenvalues --    0.63673   0.64513   0.67910   0.67948   0.73008
 Alpha virt. eigenvalues --    0.76447   0.76800   0.84687   0.85701   0.89611
 Alpha virt. eigenvalues --    1.04064   1.14330   1.18905   1.22768   1.24596
 Alpha virt. eigenvalues --    1.31008   1.33272   1.33588   1.35223   1.36561
 Alpha virt. eigenvalues --    1.41041   1.48888   1.49778   1.52102   1.52581
 Alpha virt. eigenvalues --    1.55600   1.57006   1.59337   1.59620   1.61141
 Alpha virt. eigenvalues --    1.62224   1.62794   1.63561   1.64208   1.66881
 Alpha virt. eigenvalues --    1.67357   1.70534   1.72360   1.73515   1.80387
 Alpha virt. eigenvalues --    1.80751   1.82623   1.85898   1.91097   1.95577
 Alpha virt. eigenvalues --    1.97008   1.97981   2.01178   2.01287   2.04593
 Alpha virt. eigenvalues --    2.06151   2.06392   2.08114   2.10126   2.11772
 Alpha virt. eigenvalues --    2.13725   2.15074   2.17144   2.19669   2.22065
 Alpha virt. eigenvalues --    2.23572   2.24780   2.25596   2.26643   2.28669
 Alpha virt. eigenvalues --    2.30293   2.31353   2.33018   2.33510   2.36978
 Alpha virt. eigenvalues --    2.38878   2.40002   2.43901   2.46837   2.47834
 Alpha virt. eigenvalues --    2.51252   2.60304   2.66545   2.67623   2.73057
 Alpha virt. eigenvalues --    2.81253   2.88889   2.90932   2.94125   3.00283
 Alpha virt. eigenvalues --    3.03924   3.11288   3.12401   3.21143   3.21635
 Alpha virt. eigenvalues --    3.28059   3.31996   3.36263   3.37297   3.40408
 Alpha virt. eigenvalues --    3.43920   3.46940   3.50635   3.57074   4.42964
 Alpha virt. eigenvalues --    4.49847   4.71892   4.79087   5.05799   5.18279
 Alpha virt. eigenvalues --    5.40619   5.56966   6.00740   6.06375   7.39589
          Condensed to atoms (all electrons):
               1          2          3          4          5          6
     1  C    3.791762   0.351250  -0.078645   0.008293   0.274716   0.275429
     2  C    0.351250   4.386107   0.378755  -0.034263  -0.025158  -0.026538
     3  C   -0.078645   0.378755   3.795007   0.256053   0.001004   0.000908
     4  F    0.008293  -0.034263   0.256053   9.187724  -0.000090   0.000001
     5  F    0.274716  -0.025158   0.001004  -0.000090   9.161109  -0.028073
     6  F    0.275429  -0.026538   0.000908   0.000001  -0.028073   9.160853
     7  F   -0.016831   0.222386  -0.018172   0.000752  -0.001694   0.000250
     8  F   -0.017054   0.222371  -0.018359   0.000291   0.000217  -0.001570
     9  F    0.001518  -0.022709   0.284029  -0.027425  -0.000001  -0.000001
    10  F    0.009721  -0.035596   0.256321  -0.025502   0.000001  -0.000127
    11  F    0.270189  -0.032099   0.009977  -0.004838  -0.027798  -0.027861
               7          8          9         10         11
     1  C   -0.016831  -0.017054   0.001518   0.009721   0.270189
     2  C    0.222386   0.222371  -0.022709  -0.035596  -0.032099
     3  C   -0.018172  -0.018359   0.284029   0.256321   0.009977
     4  F    0.000752   0.000291  -0.027425  -0.025502  -0.004838
     5  F   -0.001694   0.000217  -0.000001   0.000001  -0.027798
     6  F    0.000250  -0.001570  -0.000001  -0.000127  -0.027861
     7  F    9.202535  -0.025844   0.000361   0.000293   0.000300
     8  F   -0.025844   9.202660   0.000369   0.000785   0.000315
     9  F    0.000361   0.000369   9.149992  -0.027435  -0.000003
    10  F    0.000293   0.000785  -0.027435   9.186535  -0.003349
    11  F    0.000300   0.000315  -0.000003  -0.003349   9.176073
 Mulliken charges:
               1
     1  C    1.129652
     2  C    0.615493
     3  C    1.133122
     4  F   -0.360995
     5  F   -0.354233
     6  F   -0.353271
     7  F   -0.364336
     8  F   -0.364180
     9  F   -0.358696
    10  F   -0.361648
    11  F   -0.360908
 Sum of Mulliken charges =  -0.00000
 Mulliken charges with hydrogens summed into heavy atoms:
               1
     1  C    1.129652
     2  C    0.615493
     3  C    1.133122
     4  F   -0.360995
     5  F   -0.354233
     6  F   -0.353271
     7  F   -0.364336
     8  F   -0.364180
     9  F   -0.358696
    10  F   -0.361648
    11  F   -0.360908
 Electronic spatial extent (au):  <R**2>=           1286.5767
 Charge=              0.0000 electrons
 Dipole moment (field-independent basis, Debye):
    X=             -0.0243    Y=              0.0074    Z=             -0.0049  Tot=              0.0258
 Quadrupole moment (field-independent basis, Debye-Ang):
   XX=            -57.3426   YY=            -57.5528   ZZ=            -57.7817
   XY=             -0.0890   XZ=              0.0090   YZ=              0.0087
 Traceless Quadrupole moment (field-independent basis, Debye-Ang):
   XX=              0.2164   YY=              0.0062   ZZ=             -0.2227
   XY=             -0.0890   XZ=              0.0090   YZ=              0.0087
 Octapole moment (field-independent basis, Debye-Ang**2):
  XXX=             -0.4011  YYY=             -0.9082  ZZZ=             -0.2197  XYY=             -0.9601
  XXY=             -1.7465  XXZ=              0.0895  XZZ=              1.2500  YZZ=             -1.2705
  YYZ=              0.1234  XYZ=             -0.1116
 Hexadecapole moment (field-independent basis, Debye-Ang**3):
 XXXX=           -648.3170 YYYY=           -304.4649 ZZZZ=           -239.5006 XXXY=             -2.5973
 XXXZ=             -0.2578 YYYX=             -1.1153 YYYZ=             -0.0957 ZZZX=              0.2948
 ZZZY=              0.0711 XXYY=           -154.3990 XXZZ=           -151.4900 YYZZ=            -93.0183
 XXYZ=              0.2435 YYXZ=             -0.1210 ZZXY=              2.0781
 N-N= 7.993718400233D+02 E-N=-3.764670870263D+03  KE= 9.066371984660D+02
 Calling FoFJK, ICntrl=      2127 FMM=F ISym2X=0 I1Cent= 0 IOpClX= 0 NMat=1 NMatS=1 NMatT=0.
 ***** Axes restored to original set *****
 -------------------------------------------------------------------
 Center     Atomic                   Forces (Hartrees/Bohr)
 Number     Number              X              Y              Z
 -------------------------------------------------------------------
      1        6          -0.020616287   -0.007122232   -0.025214486
      2        6          -0.003406223    0.011667458    0.010446512
      3        6           0.022102661   -0.003081641    0.014548508
      4        9          -0.021348957   -0.000624419    0.037965859
      5        9           0.003933717   -0.035765163    0.027158123
      6        9           0.038561745    0.016292702   -0.016913086
      7        9          -0.002263968   -0.029330855    0.010965760
      8        9           0.023697369    0.005586073   -0.019623798
      9        9          -0.011000156   -0.022901359   -0.035018908
     10        9           0.010027680    0.041368174   -0.002685341
     11        9          -0.039687581    0.023911263   -0.001629142
 -------------------------------------------------------------------
 Cartesian Forces:  Max     0.041368174 RMS     0.021916009

 GradGradGradGradGradGradGradGradGradGradGradGradGradGradGradGradGradGrad
 Berny optimization.
 Search for a local minimum.
 Step number   1 out of a maximum of    2
 All quantities printed in internal units (Hartrees-Bohrs-Radians)
 Second derivative matrix not updated -- first step.
 ITU=  0
     Eigenvalues ---    0.00138   0.00198   0.01262   0.03375   0.04954
     Eigenvalues ---    0.04966   0.05247   0.06377   0.08038   0.08900
     Eigenvalues ---    0.11974   0.13722   0.14516   0.14917   0.17630
     Eigenvalues ---    0.20330   0.23233   0.34791   0.58765   0.88599
     Eigenvalues ---    1.09445   1.21324   1.32127   1.42241   1.43161
     Eigenvalues ---    1.48555   1.56713
 Quadratic step=1.667D+00 exceeds max=3.000D-01 adjusted using Lamda=-7.615D-02.
 Angle between NR and scaled steps=  47.54 degrees.
 Angle between quadratic step and forces=  43.01 degrees.
 Linear search not attempted -- first point.
 B after Tr=    -0.000078   -0.000010   -0.000039
         Rot=    1.000000   -0.000012   -0.000002    0.000008 Ang=  -0.00 deg.
 Variable       Old X    -DE/DX   Delta X   Delta X   Delta X     New X
                                 (Linear)    (Quad)   (Total)
    X1       -5.04643  -0.02062   0.00000  -0.03304  -0.03310  -5.07953
    Y1        0.89801  -0.00712   0.00000   0.00453   0.00461   0.90262
    Z1       -0.00000  -0.02521   0.00000  -0.02015  -0.02015  -0.02015
    X2       -4.07635  -0.00341   0.00000   0.02622   0.02619  -4.05016
    Y2        2.26987   0.01167   0.00000  -0.02514  -0.02514   2.24473
    Z2        2.37615   0.01045   0.00000  -0.00866  -0.00863   2.36752
    X3       -1.55497   0.02210   0.00000   0.00972   0.00967  -1.54530
    Y3        1.08572  -0.00308   0.00000   0.02038   0.02031   1.10604
    Z3        3.21852   0.01455   0.00000   0.02829   0.02829   3.24681
    X4        0.16020  -0.02135   0.00000   0.01335   0.01330   0.17349
    Y4        1.31435  -0.00062   0.00000   0.02456   0.02452   1.33887
    Z4        1.34390   0.03797   0.00000   0.12198   0.12197   1.46587
    X5       -5.39750   0.00393   0.00000  -0.02890  -0.02895  -5.42645
    Y5        2.59116  -0.03577   0.00000  -0.07040  -0.07027   2.52089
    Z5       -1.87570   0.02716   0.00000   0.01122   0.01127  -1.86443
    X6       -7.25907   0.03856   0.00000   0.03354   0.03346  -7.22561
    Y6       -0.25664   0.01629   0.00000   0.01926   0.01936  -0.23728
    Z6        0.52846  -0.01691   0.00000  -0.06401  -0.06403   0.46443
    X7       -3.72083  -0.00226   0.00000   0.02092   0.02093  -3.69991
    Y7        4.73994  -0.02933   0.00000  -0.06272  -0.06271   4.67723
    Z7        1.84642   0.01097   0.00000   0.03978   0.03987   1.88629
    X8       -5.79178   0.02370   0.00000   0.07412   0.07409  -5.71769
    Y8        2.04045   0.00559   0.00000   0.01443   0.01441   2.05486
    Z8        4.25043  -0.01962   0.00000  -0.02344  -0.02341   4.22703
    X9       -0.70413  -0.01100   0.00000  -0.01409  -0.01410  -0.71824
    Y9        2.28891  -0.02290   0.00000  -0.02294  -0.02307   2.26584
    Z9        5.30099  -0.03502   0.00000  -0.02650  -0.02648   5.27450
   X10       -1.91068   0.01003   0.00000   0.05299   0.05291  -1.85777
   Y10       -1.38414   0.04137   0.00000   0.08392   0.08385  -1.30029
   Z10        3.74910  -0.00269   0.00000   0.03947   0.03941   3.78851
   X11       -3.33310  -0.03969   0.00000  -0.15429  -0.15439  -3.48749
   Y11       -0.84310   0.02391   0.00000   0.01408   0.01414  -0.82896
   Z11       -0.73575  -0.00163   0.00000  -0.09807  -0.09811  -0.83386
         Item               Value     Threshold  Converged?
 Maximum Force            0.041368     0.000450     NO 
 RMS     Force            0.021916     0.000300     NO 
 Maximum Displacement     0.154390     0.001800     NO 
 RMS     Displacement     0.052240     0.001200     NO 
 Predicted change in Energy=-1.724260D-02
 GradGradGradGradGradGradGradGradGradGradGradGradGradGradGradGradGradGrad

 1\1\GINC-MU01\Force\RHF\6-31G(d)\C3F8\LBL8\15-Sep-2025\0\\# hf/6-31G(d
 ) force\\Force calculation\\0,1\C,-2.67045456,0.4752066,0.\C,-2.157112
 34,1.20116288,1.25740497\C,-0.82285532,0.57454085,1.70316618\F,0.08477
 245,0.69552587,0.71116091\F,-2.85623447,1.3711836,-0.99257798\F,-3.841
 3347,-0.13580621,0.27964807\F,-1.96897988,2.50826869,0.9770827\F,-3.06
 487813,1.07975854,2.2492327\F,-0.37261116,1.21123915,2.80516231\F,-1.0
 1108688,-0.7324538,1.98393986\F,-1.76380195,-0.44614825,-0.3893408\\Ve
 rsion=ES64L-G16RevA.03\State=1-A\HF=-909.1038165\RMSD=7.219e-09\RMSF=2
 .192e-02\Dipole=-0.0074049,0.0030839,-0.0062347\Quadrupole=0.089937,-0
 .0772653,-0.0126717,-0.0898769,0.1224683,0.0306749\PG=C01 [X(C3F8)]\\@


 COLLEGE PROFESSOR: SOMEONE WHO TALKS IN OTHER PEOPLE'S SLEEP.
 Job cpu time:       0 days  0 hours  0 minutes  7.6 seconds.
 Elapsed time:       0 days  0 hours  0 minutes  7.7 seconds.
 File lengths (MBytes):  RWF=     28 Int=      0 D2E=      0 Chk=      4 Scr=      2
 Normal termination of Gaussian 16 at Mon Sep 15 21:48:38 2025.
