 Entering Gaussian System, Link 0=g16
 Input=gauss.gjf
 Output=gauss.log
 Initial command:
 /software/Applications/gaussian/G16.A03.AVX/g16/l1.exe "/home/lbl8/code/hartree-fock_geomopt-rev-3/example/Gau-3230126.inp" -scrdir="/home/lbl8/code/hartree-fock_geomopt-rev-3/example/"
 Entering Link 1 = /software/Applications/gaussian/G16.A03.AVX/g16/l1.exe PID=   3230128.
  
 Copyright (c) 1988,1990,1992,1993,1995,1998,2003,2009,2016,
            Gaussian, Inc.  All Rights Reserved.
  
 This is part of the Gaussian(R) 16 program.  It is based on
 the Gaussian(R) 09 system (copyright 2009, Gaussian, Inc.),
 the Gaussian(R) 03 system (copyright 2003, Gaussian, Inc.),
 the Gaussian(R) 98 system (copyright 1998, Gaussian, Inc.),
 the Gaussian(R) 94 system (copyright 1995, Gaussian, Inc.),
 the Gaussian 92(TM) system (copyright 1992, Gaussian, Inc.),
 the Gaussian 90(TM) system (copyright 1990, Gaussian, Inc.),
 the Gaussian 88(TM) system (copyright 1988, Gaussian, Inc.),
 the Gaussian 86(TM) system (copyright 1986, Carnegie Mellon
 University), and the Gaussian 82(TM) system (copyright 1983,
 Carnegie Mellon University). Gaussian is a federally registered
 trademark of Gaussian, Inc.
  
 This software contains proprietary and confidential information,
 including trade secrets, belonging to Gaussian, Inc.
  
 This software is provided under written license and may be
 used, copied, transmitted, or stored only in accord with that
 written license.
  
 The following legend is applicable only to US Government
 contracts under FAR:
  
                    RESTRICTED RIGHTS LEGEND
  
 Use, reproduction and disclosure by the US Government is
 subject to restrictions as set forth in subparagraphs (a)
 and (c) of the Commercial Computer Software - Restricted
 Rights clause in FAR 52.227-19.
  
 Gaussian, Inc.
 340 Quinnipiac St., Bldg. 40, Wallingford CT 06492
  
  
 ---------------------------------------------------------------
 Warning -- This program may not be used in any manner that
 competes with the business of Gaussian, Inc. or will provide
 assistance to any competitor of Gaussian, Inc.  The licensee
 of this program is prohibited from giving any competitor of
 Gaussian, Inc. access to this program.  By using this program,
 the user acknowledges that Gaussian, Inc. is engaged in the
 business of creating and licensing software in the field of
 computational chemistry and represents and warrants to the
 licensee that it is not a competitor of Gaussian, Inc. and that
 it will not use this program in any manner prohibited above.
 ---------------------------------------------------------------
  

 Cite this work as:
 Gaussian 16, Revision A.03,
 M. J. Frisch, G. W. Trucks, H. B. Schlegel, G. E. Scuseria, 
 M. A. Robb, J. R. Cheeseman, G. Scalmani, V. Barone, 
 G. A. Petersson, H. Nakatsuji, X. Li, M. Caricato, A. V. Marenich, 
 J. Bloino, B. G. Janesko, R. Gomperts, B. Mennucci, H. P. Hratchian, 
 J. V. Ortiz, A. F. Izmaylov, J. L. Sonnenberg, D. Williams-Young, 
 F. Ding, F. Lipparini, F. Egidi, J. Goings, B. Peng, A. Petrone, 
 T. Henderson, D. Ranasinghe, V. G. Zakrzewski, J. Gao, N. Rega, 
 G. Zheng, W. Liang, M. Hada, M. Ehara, K. Toyota, R. Fukuda, 
 J. Hasegawa, M. Ishida, T. Nakajima, Y. Honda, O. Kitao, H. Nakai, 
 T. Vreven, K. Throssell, J. A. Montgomery, Jr., J. E. Peralta, 
 F. Ogliaro, M. J. Bearpark, J. J. Heyd, E. N. Brothers, K. N. Kudin, 
 V. N. Staroverov, T. A. Keith, R. Kobayashi, J. Normand, 
 K. Raghavachari, A. P. Rendell, J. C. Burant, S. S. Iyengar, 
 J. Tomasi, M. Cossi, J. M. Millam, M. Klene, C. Adamo, R. Cammi, 
 J. W. Ochterski, R. L. Martin, K. Morokuma, O. Farkas, 
 J. B. Foresman, and D. J. Fox, Gaussian, Inc., Wallingford CT, 2016.
 
 ******************************************
 Gaussian 16:  ES64L-G16RevA.03 25-Dec-2016
                15-Sep-2025 
 ******************************************
 %chk=gauss.chk
 -------------------
 # hf/6-31G(d) force
 -------------------
 1/10=7,30=1,38=1/1,3;
 2/12=2,17=6,18=5,40=1/2;
 3/5=1,6=6,7=1,11=9,25=1,30=1,71=1/1,2,3;
 4//1;
 5/5=2,38=5/2;
 6/7=2,8=2,9=2,10=2,28=1/1;
 7/29=1/1,2,3,16;
 1/10=7,30=1/3;
 99//99;
 -----------------
 Force calculation
 -----------------
 Symbolic Z-matrix:
 Charge =  0 Multiplicity = 1
 C                    -2.70506   0.4721   -0.00971 
 C                    -2.0395    1.25206   1.13008 
 C                    -0.8666    0.51978   1.80112 
 F                     0.21511   0.63139   1.07003 
 F                    -3.48825   1.27377  -0.68975 
 F                    -3.42246  -0.51182   0.47698 
 F                    -1.59124   2.40283   0.64837 
 F                    -2.96471   1.498     2.0472 
 F                    -0.6395    1.04077   2.98091 
 F                    -1.14949  -0.75519   1.94802 
 F                    -1.79288  -0.0212   -0.81838 
 

 GradGradGradGradGradGradGradGradGradGradGradGradGradGradGradGradGradGrad
 Berny optimization.
 Initialization pass.
 Trust Radius=3.00D-01 FncErr=1.00D-07 GrdErr=1.00D-07 EigMax=2.50D+02 EigMin=1.00D-04
 Number of steps in this run=      2 maximum allowed number of steps=      2.
 GradGradGradGradGradGradGradGradGradGradGradGradGradGradGradGradGradGrad

                          Input orientation:                          
 ---------------------------------------------------------------------
 Center     Atomic      Atomic             Coordinates (Angstroms)
 Number     Number       Type             X           Y           Z
 ---------------------------------------------------------------------
      1          6           0       -2.705061    0.472099   -0.009711
      2          6           0       -2.039497    1.252055    1.130082
      3          6           0       -0.866596    0.519782    1.801118
      4          9           0        0.215108    0.631392    1.070032
      5          9           0       -3.488251    1.273768   -0.689750
      6          9           0       -3.422457   -0.511821    0.476985
      7          9           0       -1.591242    2.402827    0.648371
      8          9           0       -2.964712    1.497999    2.047202
      9          9           0       -0.639501    1.040773    2.980911
     10          9           0       -1.149489   -0.755192    1.948019
     11          9           0       -1.792881   -0.021203   -0.818380
 ---------------------------------------------------------------------
                    Distance matrix (angstroms):
                    1          2          3          4          5
     1  C    0.000000
     2  C    1.533113   0.000000
     3  C    2.580955   1.536948   0.000000
     4  F    3.117468   2.339247   1.310355   0.000000
     5  F    1.310921   2.326188   3.694048   4.150223   0.000000
     6  F    1.311346   2.334604   3.057770   3.858824   2.133993
     7  F    2.324086   1.325615   2.323746   2.564894   2.581469
     8  F    2.313175   1.325753   2.327994   3.437605   2.795582
     9  F    3.678824   2.330278   1.309548   2.132935   4.652248
    10  F    2.785454   2.343113   1.314217   2.134386   4.067470
    11  F    1.315053   2.340622   2.830625   2.832667   2.137235
                    6          7          8          9         10
     6  F    0.000000
     7  F    3.446432   0.000000
     8  F    2.591233   2.159134   0.000000
     9  F    4.052782   2.863869   2.547052   0.000000
    10  F    2.718373   3.443445   2.895124   2.133647   0.000000
    11  F    2.138736   2.840412   3.448583   4.110072   2.933539
                   11
    11  F    0.000000
 Stoichiometry    C3F8
 Framework group  C1[X(C3F8)]
 Deg. of freedom    27
 Full point group                 C1      NOp   1
 Largest Abelian subgroup         C1      NOp   1
 Largest concise Abelian subgroup C1      NOp   1
                         Standard orientation:                         
 ---------------------------------------------------------------------
 Center     Atomic      Atomic             Coordinates (Angstroms)
 Number     Number       Type             X           Y           Z
 ---------------------------------------------------------------------
      1          6           0        1.288595   -0.234419    0.001238
      2          6           0        0.002701    0.600392    0.002189
      3          6           0       -1.292349   -0.227286    0.000190
      4          9           0       -1.553686   -0.662708    1.208139
      5          9           0        2.310808    0.535920    0.284384
      6          9           0        1.475311   -0.772186   -1.180106
      7          9           0        0.001811    1.372630    1.079641
      8          9           0        0.016301    1.366890   -1.079437
      9          9           0       -2.289279    0.516189   -0.410044
     10          9           0       -1.172874   -1.258503   -0.805717
     11          9           0        1.212309   -1.190692    0.900729
 ---------------------------------------------------------------------
 Rotational constants (GHZ):           1.7128008           0.9847522           0.9249778
 Standard basis: 6-31G(d) (6D, 7F)
 There are   165 symmetry adapted cartesian basis functions of A   symmetry.
 There are   165 symmetry adapted basis functions of A   symmetry.
   165 basis functions,   308 primitive gaussians,   165 cartesian basis functions
    45 alpha electrons       45 beta electrons
       nuclear repulsion energy       807.6704548536 Hartrees.
 NAtoms=   11 NActive=   11 NUniq=   11 SFac= 1.00D+00 NAtFMM=   60 NAOKFM=F Big=F
 Integral buffers will be    131072 words long.
 Raffenetti 1 integral format.
 Two-electron integral symmetry is turned on.
 One-electron integrals computed using PRISM.
 NBasis=   165 RedAO= T EigKep=  1.24D-03  NBF=   165
 NBsUse=   165 1.00D-06 EigRej= -1.00D+00 NBFU=   165
 ExpMin= 1.69D-01 ExpMax= 7.00D+03 ExpMxC= 1.05D+03 IAcc=3 IRadAn=         5 AccDes= 0.00D+00
 Harris functional with IExCor=  205 and IRadAn=       5 diagonalized for initial guess.
 HarFok:  IExCor=  205 AccDes= 0.00D+00 IRadAn=         5 IDoV= 1 UseB2=F ITyADJ=14
 ICtDFT=  3500011 ScaDFX=  1.000000  1.000000  1.000000  1.000000
 FoFCou: FMM=F IPFlag=           0 FMFlag=      100000 FMFlg1=           0
         NFxFlg=           0 DoJE=T BraDBF=F KetDBF=T FulRan=T
         wScrn=  0.000000 ICntrl=       500 IOpCl=  0 I1Cent=   200000004 NGrid=           0
         NMat0=    1 NMatS0=      1 NMatT0=    0 NMatD0=    1 NMtDS0=    0 NMtDT0=    0
 Petite list used in FoFCou.
 Keep R1 ints in memory in canonical form, NReq=96071382.
 Requested convergence on RMS density matrix=1.00D-08 within 128 cycles.
 Requested convergence on MAX density matrix=1.00D-06.
 Requested convergence on             energy=1.00D-06.
 No special actions if energy rises.
 SCF Done:  E(RHF) =  -909.124309333     A.U. after   11 cycles
            NFock= 11  Conv=0.53D-08     -V/T= 2.0019

 **********************************************************************

            Population analysis using the SCF density.

 **********************************************************************

 Orbital symmetries:
       Occupied  (A) (A) (A) (A) (A) (A) (A) (A) (A) (A) (A) (A)
                 (A) (A) (A) (A) (A) (A) (A) (A) (A) (A) (A) (A)
                 (A) (A) (A) (A) (A) (A) (A) (A) (A) (A) (A) (A)
                 (A) (A) (A) (A) (A) (A) (A) (A) (A)
       Virtual   (A) (A) (A) (A) (A) (A) (A) (A) (A) (A) (A) (A)
                 (A) (A) (A) (A) (A) (A) (A) (A) (A) (A) (A) (A)
                 (A) (A) (A) (A) (A) (A) (A) (A) (A) (A) (A) (A)
                 (A) (A) (A) (A) (A) (A) (A) (A) (A) (A) (A) (A)
                 (A) (A) (A) (A) (A) (A) (A) (A) (A) (A) (A) (A)
                 (A) (A) (A) (A) (A) (A) (A) (A) (A) (A) (A) (A)
                 (A) (A) (A) (A) (A) (A) (A) (A) (A) (A) (A) (A)
                 (A) (A) (A) (A) (A) (A) (A) (A) (A) (A) (A) (A)
                 (A) (A) (A) (A) (A) (A) (A) (A) (A) (A) (A) (A)
                 (A) (A) (A) (A) (A) (A) (A) (A) (A) (A) (A) (A)
 The electronic state is 1-A.
 Alpha  occ. eigenvalues --  -26.37995 -26.37968 -26.37747 -26.37729 -26.37728
 Alpha  occ. eigenvalues --  -26.37704 -26.37467 -26.37446 -11.54740 -11.54698
 Alpha  occ. eigenvalues --  -11.47943  -1.78913  -1.77817  -1.73205  -1.68339
 Alpha  occ. eigenvalues --   -1.67803  -1.67598  -1.67506  -1.66253  -1.12498
 Alpha  occ. eigenvalues --   -1.02644  -0.95633  -0.90823  -0.88954  -0.87709
 Alpha  occ. eigenvalues --   -0.86567  -0.85596  -0.85524  -0.81463  -0.76228
 Alpha  occ. eigenvalues --   -0.75478  -0.74258  -0.74183  -0.73567  -0.73180
 Alpha  occ. eigenvalues --   -0.71865  -0.70263  -0.70210  -0.68477  -0.68448
 Alpha  occ. eigenvalues --   -0.68038  -0.67536  -0.67322  -0.63277  -0.55977
 Alpha virt. eigenvalues --    0.25409   0.25578   0.37031   0.39019   0.41977
 Alpha virt. eigenvalues --    0.44319   0.46895   0.49819   0.51528   0.55765
 Alpha virt. eigenvalues --    0.64274   0.64878   0.69010   0.69104   0.71340
 Alpha virt. eigenvalues --    0.76530   0.77024   0.85473   0.87482   0.88524
 Alpha virt. eigenvalues --    1.07063   1.11735   1.22161   1.24119   1.26114
 Alpha virt. eigenvalues --    1.30489   1.33986   1.34489   1.34990   1.37332
 Alpha virt. eigenvalues --    1.40783   1.45298   1.53173   1.53355   1.54603
 Alpha virt. eigenvalues --    1.56458   1.57907   1.58582   1.59230   1.62483
 Alpha virt. eigenvalues --    1.62885   1.63424   1.63852   1.64421   1.64875
 Alpha virt. eigenvalues --    1.66237   1.68906   1.70148   1.71467   1.76536
 Alpha virt. eigenvalues --    1.79399   1.83722   1.84702   1.87765   1.89400
 Alpha virt. eigenvalues --    1.95216   1.97229   1.97922   2.02734   2.04985
 Alpha virt. eigenvalues --    2.05172   2.06363   2.06712   2.10014   2.10089
 Alpha virt. eigenvalues --    2.10462   2.16761   2.19231   2.21981   2.27055
 Alpha virt. eigenvalues --    2.29127   2.30344   2.30555   2.31942   2.32342
 Alpha virt. eigenvalues --    2.37461   2.37945   2.39941   2.42057   2.42846
 Alpha virt. eigenvalues --    2.45253   2.45424   2.52545   2.55352   2.61232
 Alpha virt. eigenvalues --    2.62727   2.66956   2.68010   2.74561   2.77731
 Alpha virt. eigenvalues --    2.79567   2.81575   2.93636   2.96421   3.03198
 Alpha virt. eigenvalues --    3.12356   3.15584   3.17763   3.25581   3.28796
 Alpha virt. eigenvalues --    3.29282   3.38842   3.41646   3.42422   3.43417
 Alpha virt. eigenvalues --    3.45147   3.45756   3.47713   3.54811   4.55201
 Alpha virt. eigenvalues --    4.64747   4.71476   4.82339   5.09675   5.26395
 Alpha virt. eigenvalues --    5.55971   5.73437   6.01152   6.10198   6.14690
          Condensed to atoms (all electrons):
               1          2          3          4          5          6
     1  C    3.778270   0.370567  -0.065946   0.001418   0.295325   0.281222
     2  C    0.370567   4.437224   0.367279  -0.035728  -0.025283  -0.035831
     3  C   -0.065946   0.367279   3.778336   0.284889   0.001485   0.001787
     4  F    0.001418  -0.035728   0.284889   9.152232  -0.000002  -0.000000
     5  F    0.295325  -0.025283   0.001485  -0.000002   9.137052  -0.034459
     6  F    0.281222  -0.035831   0.001787  -0.000000  -0.034459   9.156750
     7  F   -0.018391   0.217733  -0.018929   0.001072   0.000518   0.000351
     8  F   -0.019609   0.216688  -0.017685   0.000347   0.000316   0.001132
     9  F    0.001470  -0.025186   0.294761  -0.034713  -0.000001  -0.000004
    10  F    0.012013  -0.040057   0.279205  -0.033690   0.000001  -0.000272
    11  F    0.278227  -0.041288   0.011980  -0.000111  -0.033946  -0.032806
               7          8          9         10         11
     1  C   -0.018391  -0.019609   0.001470   0.012013   0.278227
     2  C    0.217733   0.216688  -0.025186  -0.040057  -0.041288
     3  C   -0.018929  -0.017685   0.294761   0.279205   0.011980
     4  F    0.001072   0.000347  -0.034713  -0.033690  -0.000111
     5  F    0.000518   0.000316  -0.000001   0.000001  -0.033946
     6  F    0.000351   0.001132  -0.000004  -0.000272  -0.032806
     7  F    9.206663  -0.028973   0.000209   0.000365   0.000639
     8  F   -0.028973   9.208340   0.000334   0.000493   0.000372
     9  F    0.000209   0.000334   9.136686  -0.034444   0.000001
    10  F    0.000365   0.000493  -0.034444   9.159820  -0.001062
    11  F    0.000639   0.000372   0.000001  -0.001062   9.161058
 Mulliken charges:
               1
     1  C    1.085433
     2  C    0.593883
     3  C    1.082838
     4  F   -0.335713
     5  F   -0.341007
     6  F   -0.337870
     7  F   -0.361257
     8  F   -0.361755
     9  F   -0.339113
    10  F   -0.342373
    11  F   -0.343065
 Sum of Mulliken charges =  -0.00000
 Mulliken charges with hydrogens summed into heavy atoms:
               1
     1  C    1.085433
     2  C    0.593883
     3  C    1.082838
     4  F   -0.335713
     5  F   -0.341007
     6  F   -0.337870
     7  F   -0.361257
     8  F   -0.361755
     9  F   -0.339113
    10  F   -0.342373
    11  F   -0.343065
 Electronic spatial extent (au):  <R**2>=           1277.4537
 Charge=             -0.0000 electrons
 Dipole moment (field-independent basis, Debye):
    X=             -0.0145    Y=             -0.0641    Z=              0.0072  Tot=              0.0661
 Quadrupole moment (field-independent basis, Debye-Ang):
   XX=            -56.7819   YY=            -57.2483   ZZ=            -57.2754
   XY=             -0.0333   XZ=              0.0246   YZ=              0.0073
 Traceless Quadrupole moment (field-independent basis, Debye-Ang):
   XX=              0.3200   YY=             -0.1465   ZZ=             -0.1735
   XY=             -0.0333   XZ=              0.0246   YZ=              0.0073
 Octapole moment (field-independent basis, Debye-Ang**2):
  XXX=             -0.0545  YYY=             -1.2550  ZZZ=             -0.2519  XYY=             -0.1101
  XXY=             -1.8408  XXZ=              0.0473  XZZ=              0.1153  YZZ=             -0.1028
  YYZ=              0.1369  XYZ=             -0.7172
 Hexadecapole moment (field-independent basis, Debye-Ang**3):
 XXXX=           -663.9692 YYYY=           -286.6656 ZZZZ=           -227.5668 XXXY=             -0.2200
 XXXZ=             -1.7738 YYYX=             -0.1158 YYYZ=             -0.1302 ZZZX=              2.1911
 ZZZY=              0.0565 XXYY=           -156.6864 XXZZ=           -150.1110 YYZZ=            -88.6734
 XXYZ=              0.2780 YYXZ=             -1.2044 ZZXY=              0.2708
 N-N= 8.076704548536D+02 E-N=-3.781756278660D+03  KE= 9.074130528923D+02
 Calling FoFJK, ICntrl=      2127 FMM=F ISym2X=0 I1Cent= 0 IOpClX= 0 NMat=1 NMatS=1 NMatT=0.
 ***** Axes restored to original set *****
 -------------------------------------------------------------------
 Center     Atomic                   Forces (Hartrees/Bohr)
 Number     Number              X              Y              Z
 -------------------------------------------------------------------
      1        6          -0.000284563   -0.000392541   -0.000854020
      2        6          -0.000192116    0.000006276    0.000218634
      3        6          -0.000129277   -0.000122981   -0.000074678
      4        9          -0.000399793   -0.000571548   -0.000245784
      5        9           0.000506545   -0.000764429    0.000772412
      6        9           0.000500978    0.000455543   -0.001432686
      7        9           0.000187476   -0.000312216    0.000542133
      8        9          -0.000046994   -0.000086956   -0.000230676
      9        9           0.000633150    0.000765803   -0.000240596
     10        9           0.000164067    0.000091038    0.001128515
     11        9          -0.000939474    0.000932012    0.000416745
 -------------------------------------------------------------------
 Cartesian Forces:  Max     0.001432686 RMS     0.000560048

 GradGradGradGradGradGradGradGradGradGradGradGradGradGradGradGradGradGrad
 Berny optimization.
 Search for a local minimum.
 Step number   1 out of a maximum of    2
 All quantities printed in internal units (Hartrees-Bohrs-Radians)
 Second derivative matrix not updated -- first step.
 ITU=  0
     Eigenvalues ---    0.00180   0.00281   0.01359   0.03407   0.05312
     Eigenvalues ---    0.05350   0.05388   0.06823   0.08525   0.09236
     Eigenvalues ---    0.12512   0.14525   0.15186   0.15769   0.18372
     Eigenvalues ---    0.21538   0.24613   0.36795   0.65275   1.01527
     Eigenvalues ---    1.20993   1.30769   1.48029   1.62613   1.63590
     Eigenvalues ---    1.68506   1.73502
 Quadratic step=9.805D-01 exceeds max=3.000D-01 adjusted using Lamda=-4.245D-03.
 Angle between NR and scaled steps=   6.72 degrees.
 Angle between quadratic step and forces=  52.01 degrees.
 Linear search not attempted -- first point.
 B after Tr=    -0.000207   -0.000034   -0.000525
         Rot=    1.000000    0.000061   -0.000083    0.000006 Ang=   0.01 deg.
 Variable       Old X    -DE/DX   Delta X   Delta X   Delta X     New X
                                 (Linear)    (Quad)   (Total)
    X1       -5.11182  -0.00028   0.00000   0.01080   0.01060  -5.10123
    Y1        0.89214  -0.00039   0.00000   0.00961   0.00963   0.90177
    Z1       -0.01835  -0.00085   0.00000  -0.02117  -0.02096  -0.03931
    X2       -3.85409  -0.00019   0.00000  -0.01126  -0.01108  -3.86517
    Y2        2.36604   0.00001   0.00000  -0.01616  -0.01588   2.35016
    Z2        2.13555   0.00022   0.00000   0.01234   0.01217   2.14772
    X3       -1.63763  -0.00013   0.00000  -0.00616  -0.00579  -1.64342
    Y3        0.98225  -0.00012   0.00000  -0.00726  -0.00685   0.97539
    Z3        3.40362  -0.00007   0.00000   0.01526   0.01489   3.41851
    X4        0.40650  -0.00040   0.00000  -0.04308  -0.04295   0.36355
    Y4        1.19316  -0.00057   0.00000  -0.11772  -0.11751   1.07564
    Z4        2.02207  -0.00025   0.00000  -0.05573  -0.05644   1.96563
    X5       -6.59184   0.00051   0.00000  -0.01828  -0.01867  -6.61051
    Y5        2.40707  -0.00076   0.00000   0.01367   0.01356   2.42063
    Z5       -1.30344   0.00077   0.00000   0.02072   0.02100  -1.28244
    X6       -6.46751   0.00050   0.00000   0.04401   0.04393  -6.42358
    Y6       -0.96720   0.00046   0.00000  -0.03970  -0.03955  -1.00675
    Z6        0.90137  -0.00143   0.00000  -0.07631  -0.07565   0.82572
    X7       -3.00701   0.00019   0.00000  -0.01353  -0.01347  -3.02049
    Y7        4.54068  -0.00031   0.00000  -0.00221  -0.00205   4.53863
    Z7        1.22524   0.00054   0.00000   0.04495   0.04437   1.26962
    X8       -5.60249  -0.00005   0.00000  -0.02572  -0.02525  -5.62774
    Y8        2.83081  -0.00009   0.00000  -0.04086  -0.04035   2.79046
    Z8        3.86865  -0.00023   0.00000   0.00391   0.00397   3.87262
    X9       -1.20848   0.00063   0.00000   0.08376   0.08450  -1.12398
    Y9        1.96678   0.00077   0.00000   0.09707   0.09773   2.06451
    Z9        5.63311  -0.00024   0.00000  -0.04785  -0.04844   5.58466
   X10       -2.17222   0.00016   0.00000  -0.04454  -0.04413  -2.21635
   Y10       -1.42711   0.00009   0.00000   0.01736   0.01782  -1.40929
   Z10        3.68122   0.00113   0.00000   0.15446   0.15447   3.83569
   X11       -3.38805  -0.00094   0.00000   0.02279   0.02232  -3.36574
   Y11       -0.04007   0.00093   0.00000   0.08365   0.08346   0.04339
   Z11       -1.54651   0.00042   0.00000  -0.04941  -0.04938  -1.59590
         Item               Value     Threshold  Converged?
 Maximum Force            0.001433     0.000450     NO 
 RMS     Force            0.000560     0.000300     NO 
 Maximum Displacement     0.154469     0.001800     NO 
 RMS     Displacement     0.052224     0.001200     NO 
 Predicted change in Energy=-4.881059D-04
 GradGradGradGradGradGradGradGradGradGradGradGradGradGradGradGradGradGrad

 1\1\GINC-MU01\Force\RHF\6-31G(d)\C3F8\LBL8\15-Sep-2025\0\\# hf/6-31G(d
 ) force\\Force calculation\\0,1\C,-2.70506077,0.47209877,-0.00971071\C
 ,-2.039497,1.25205508,1.13008249\C,-0.86659637,0.5197818,1.8011183\F,0
 .21510843,0.63139187,1.07003175\F,-3.48825066,1.27376766,-0.68975025\F
 ,-3.42245699,-0.51182096,0.47698484\F,-1.59124236,2.40282691,0.648371\
 F,-2.96471211,1.49799949,2.04720195\F,-0.63950093,1.04077342,2.9809110
 3\F,-1.14948903,-0.7551924,1.94801872\F,-1.79288138,-0.02120338,-0.818
 37968\\Version=ES64L-G16RevA.03\State=1-A\HF=-909.1243093\RMSD=5.303e-
 09\RMSF=5.600e-04\Dipole=0.0134936,-0.0216399,-0.0050913\Quadrupole=0.
 0303622,-0.1077168,0.0773546,0.0114245,0.1839066,0.0175598\PG=C01 [X(C
 3F8)]\\@


 I MET A TRAVELLER FROM AN ANTIQUE LAND
 WHO SAID... TWO VAST AND TRUNKLESS LEGS OF STONE
 STAND IN THE DESERT..... NEAR THEM,  ON THE SAND,
 HALF SUNK,  A SHATTERED VISAGE LIES,  WHOSE FROWN,
 AND WRINKLED LIP,  AND SNEER OF COLD COMMAND
 TELL THAT ITS SCULPTOR WELL THOSE PASSIONS READ
 WHICH YET SURVIVE,  STAMPED ON THESE LIFELESS THINGS
 THE HAND THAT MOCKED THEM,  AND THE HEART THAT FED-
 AND ON THE PEDESTAL THESE WORDS APPEAR 
 MY NAME IS OZYMANDIAS, KING OF KINGS--   
 LOOK ON MY WORKS YE MIGHTY AND DESPAIR. 
 NOTHING BESIDE REMAINS,  ROUND THE DECAY 
 OF THAT COLOSSAL WRECK,  BOUNDLESS AND BARE
 THE LONE AND LEVEL SANDS STRETCH FAR AWAY.
                                    SHELLEY
 Job cpu time:       0 days  0 hours  0 minutes  7.7 seconds.
 Elapsed time:       0 days  0 hours  0 minutes  7.9 seconds.
 File lengths (MBytes):  RWF=     28 Int=      0 D2E=      0 Chk=      4 Scr=      2
 Normal termination of Gaussian 16 at Mon Sep 15 21:53:37 2025.
