 Entering Gaussian System, Link 0=g16
 Input=gauss.gjf
 Output=gauss.log
 Initial command:
 /software/Applications/gaussian/G16.A03.AVX/g16/l1.exe "/home/lbl8/code/hartree-fock_geomopt-rev-3/example/Gau-3214595.inp" -scrdir="/home/lbl8/code/hartree-fock_geomopt-rev-3/example/"
 Entering Link 1 = /software/Applications/gaussian/G16.A03.AVX/g16/l1.exe PID=   3214597.
  
 Copyright (c) 1988,1990,1992,1993,1995,1998,2003,2009,2016,
            Gaussian, Inc.  All Rights Reserved.
  
 This is part of the Gaussian(R) 16 program.  It is based on
 the Gaussian(R) 09 system (copyright 2009, Gaussian, Inc.),
 the Gaussian(R) 03 system (copyright 2003, Gaussian, Inc.),
 the Gaussian(R) 98 system (copyright 1998, Gaussian, Inc.),
 the Gaussian(R) 94 system (copyright 1995, Gaussian, Inc.),
 the Gaussian 92(TM) system (copyright 1992, Gaussian, Inc.),
 the Gaussian 90(TM) system (copyright 1990, Gaussian, Inc.),
 the Gaussian 88(TM) system (copyright 1988, Gaussian, Inc.),
 the Gaussian 86(TM) system (copyright 1986, Carnegie Mellon
 University), and the Gaussian 82(TM) system (copyright 1983,
 Carnegie Mellon University). Gaussian is a federally registered
 trademark of Gaussian, Inc.
  
 This software contains proprietary and confidential information,
 including trade secrets, belonging to Gaussian, Inc.
  
 This software is provided under written license and may be
 used, copied, transmitted, or stored only in accord with that
 written license.
  
 The following legend is applicable only to US Government
 contracts under FAR:
  
                    RESTRICTED RIGHTS LEGEND
  
 Use, reproduction and disclosure by the US Government is
 subject to restrictions as set forth in subparagraphs (a)
 and (c) of the Commercial Computer Software - Restricted
 Rights clause in FAR 52.227-19.
  
 Gaussian, Inc.
 340 Quinnipiac St., Bldg. 40, Wallingford CT 06492
  
  
 ---------------------------------------------------------------
 Warning -- This program may not be used in any manner that
 competes with the business of Gaussian, Inc. or will provide
 assistance to any competitor of Gaussian, Inc.  The licensee
 of this program is prohibited from giving any competitor of
 Gaussian, Inc. access to this program.  By using this program,
 the user acknowledges that Gaussian, Inc. is engaged in the
 business of creating and licensing software in the field of
 computational chemistry and represents and warrants to the
 licensee that it is not a competitor of Gaussian, Inc. and that
 it will not use this program in any manner prohibited above.
 ---------------------------------------------------------------
  

 Cite this work as:
 Gaussian 16, Revision A.03,
 M. J. Frisch, G. W. Trucks, H. B. Schlegel, G. E. Scuseria, 
 M. A. Robb, J. R. Cheeseman, G. Scalmani, V. Barone, 
 G. A. Petersson, H. Nakatsuji, X. Li, M. Caricato, A. V. Marenich, 
 J. Bloino, B. G. Janesko, R. Gomperts, B. Mennucci, H. P. Hratchian, 
 J. V. Ortiz, A. F. Izmaylov, J. L. Sonnenberg, D. Williams-Young, 
 F. Ding, F. Lipparini, F. Egidi, J. Goings, B. Peng, A. Petrone, 
 T. Henderson, D. Ranasinghe, V. G. Zakrzewski, J. Gao, N. Rega, 
 G. Zheng, W. Liang, M. Hada, M. Ehara, K. Toyota, R. Fukuda, 
 J. Hasegawa, M. Ishida, T. Nakajima, Y. Honda, O. Kitao, H. Nakai, 
 T. Vreven, K. Throssell, J. A. Montgomery, Jr., J. E. Peralta, 
 F. Ogliaro, M. J. Bearpark, J. J. Heyd, E. N. Brothers, K. N. Kudin, 
 V. N. Staroverov, T. A. Keith, R. Kobayashi, J. Normand, 
 K. Raghavachari, A. P. Rendell, J. C. Burant, S. S. Iyengar, 
 J. Tomasi, M. Cossi, J. M. Millam, M. Klene, C. Adamo, R. Cammi, 
 J. W. Ochterski, R. L. Martin, K. Morokuma, O. Farkas, 
 J. B. Foresman, and D. J. Fox, Gaussian, Inc., Wallingford CT, 2016.
 
 ******************************************
 Gaussian 16:  ES64L-G16RevA.03 25-Dec-2016
                15-Sep-2025 
 ******************************************
 %chk=gauss.chk
 -------------------
 # hf/6-31G(d) force
 -------------------
 1/10=7,30=1,38=1/1,3;
 2/12=2,17=6,18=5,40=1/2;
 3/5=1,6=6,7=1,11=9,25=1,30=1,71=1/1,2,3;
 4//1;
 5/5=2,38=5/2;
 6/7=2,8=2,9=2,10=2,28=1/1;
 7/29=1/1,2,3,16;
 1/10=7,30=1/3;
 99//99;
 -----------------
 Force calculation
 -----------------
 Symbolic Z-matrix:
 Charge =  0 Multiplicity = 1
 C                    -2.84694   1.833     0.01494 
 C                    -1.74106   2.35274   0.91297 
 C                    -1.02528   2.9937    3.90657 
 C                    -0.6764    1.84083   2.97404 
 H                    -2.66583   0.79597  -0.24398 
 H                    -2.90053   2.4147   -0.9002 
 H                    -3.80462   1.89462   0.51921 
 H                    -1.92961   3.39188   1.17448 
 H                    -0.78367   2.31764   0.39394 
 H                    -1.95928   2.7911    4.4192 
 H                    -0.24568   3.12051   4.65211 
 H                    -1.12776   3.9322    3.37248 
 H                     0.25617   2.04573   2.4504 
 H                    -0.53039   0.93708   3.55274 
 O                    -1.6917    1.54957   2.0562 
 

 GradGradGradGradGradGradGradGradGradGradGradGradGradGradGradGradGradGrad
 Berny optimization.
 Initialization pass.
 Trust Radius=3.00D-01 FncErr=1.00D-07 GrdErr=1.00D-07 EigMax=2.50D+02 EigMin=1.00D-04
 Number of steps in this run=      2 maximum allowed number of steps=      2.
 GradGradGradGradGradGradGradGradGradGradGradGradGradGradGradGradGradGrad

                          Input orientation:                          
 ---------------------------------------------------------------------
 Center     Atomic      Atomic             Coordinates (Angstroms)
 Number     Number       Type             X           Y           Z
 ---------------------------------------------------------------------
      1          6           0       -2.846941    1.832998    0.014937
      2          6           0       -1.741059    2.352745    0.912972
      3          6           0       -1.025279    2.993704    3.906574
      4          6           0       -0.676403    1.840829    2.974038
      5          1           0       -2.665827    0.795968   -0.243976
      6          1           0       -2.900533    2.414695   -0.900203
      7          1           0       -3.804619    1.894617    0.519205
      8          1           0       -1.929605    3.391877    1.174477
      9          1           0       -0.783668    2.317640    0.393936
     10          1           0       -1.959279    2.791098    4.419202
     11          1           0       -0.245676    3.120506    4.652114
     12          1           0       -1.127757    3.932201    3.372482
     13          1           0        0.256170    2.045728    2.450397
     14          1           0       -0.530392    0.937077    3.552740
     15          8           0       -1.691696    1.549570    2.056203
 ---------------------------------------------------------------------
                    Distance matrix (angstroms):
                    1          2          3          4          5
     1  C    0.000000
     2  C    1.516436   0.000000
     3  C    4.450902   3.144014   0.000000
     4  C    3.669819   2.375614   1.523305   0.000000
     5  H    1.084098   2.148785   4.974787   3.924940   0.000000
     6  H    1.085691   2.153096   5.192006   4.503978   1.762384
     7  H    1.084081   2.150165   4.517409   3.976787   1.756793
     8  H    2.148521   1.087994   2.905288   2.686017   3.048405
     9  H    2.153047   1.089601   3.585256   2.625982   2.502986
    10  H    4.593849   3.540257   1.084524   2.153435   5.121033
    11  H    5.470619   4.099611   1.086136   2.153843   5.935681
    12  H    4.316869   2.986639   1.084681   2.176308   5.027960
    13  H    3.950446   2.539067   2.158986   1.088979   4.166487
    14  H    4.322629   3.230821   2.144720   1.083043   4.358330
    15  O    2.362559   1.398035   2.439981   1.399312   2.609151
                    6          7          8          9         10
     6  H    0.000000
     7  H    1.761413   0.000000
     8  H    2.490358   2.487337   0.000000
     9  H    2.483008   3.052996   1.753968   0.000000
    10  H    5.415137   4.406691   3.300008   4.220070   0.000000
    11  H    6.194728   5.590153   3.873399   4.366476   1.760453
    12  H    4.868408   4.411182   2.401278   3.405428   1.757603
    13  H    4.618164   4.499150   2.866654   2.320395   3.056139
    14  H    5.256388   4.565060   3.693233   3.456609   2.495970
    15  O    3.309088   2.635500   2.056243   2.043912   2.682677
                   11         12         13         14         15
    11  H    0.000000
    12  H    1.753390   0.000000
    13  H    2.500911   2.514812   0.000000
    14  H    2.461107   3.059429   1.750127   0.000000
    15  O    3.361186   2.779847   2.048352   1.990828   0.000000
 Stoichiometry    C4H10O
 Framework group  C1[X(C4H10O)]
 Deg. of freedom    39
 Full point group                 C1      NOp   1
 Largest Abelian subgroup         C1      NOp   1
 Largest concise Abelian subgroup C1      NOp   1
                         Standard orientation:                         
 ---------------------------------------------------------------------
 Center     Atomic      Atomic             Coordinates (Angstroms)
 Number     Number       Type             X           Y           Z
 ---------------------------------------------------------------------
      1          6           0        2.327319    0.160577   -0.207078
      2          6           0        0.962551    0.220753    0.451227
      3          6           0       -2.101395    0.599824   -0.143211
      4          6           0       -1.239927   -0.619859    0.157962
      5          1           0        2.648433   -0.869240   -0.314929
      6          1           0        3.062419    0.692471    0.389111
      7          1           0        2.292351    0.610176   -1.192912
      8          1           0        0.642063    1.255516    0.552635
      9          1           0        1.006287   -0.204781    1.453344
     10          1           0       -2.110312    0.797831   -1.209468
     11          1           0       -3.123060    0.425270    0.181479
     12          1           0       -1.740478    1.488052    0.364058
     13          1           0       -1.221040   -0.815474    1.229061
     14          1           0       -1.665114   -1.492380   -0.322565
     15          8           0        0.064645   -0.506901   -0.335402
 ---------------------------------------------------------------------
 Rotational constants (GHZ):          14.1235127           2.4630698           2.3431385
 Standard basis: 6-31G(d) (6D, 7F)
 There are    95 symmetry adapted cartesian basis functions of A   symmetry.
 There are    95 symmetry adapted basis functions of A   symmetry.
    95 basis functions,   180 primitive gaussians,    95 cartesian basis functions
    21 alpha electrons       21 beta electrons
       nuclear repulsion energy       192.4703707861 Hartrees.
 NAtoms=   15 NActive=   15 NUniq=   15 SFac= 1.00D+00 NAtFMM=   60 NAOKFM=F Big=F
 Integral buffers will be    131072 words long.
 Raffenetti 1 integral format.
 Two-electron integral symmetry is turned on.
 One-electron integrals computed using PRISM.
 NBasis=    95 RedAO= T EigKep=  4.87D-03  NBF=    95
 NBsUse=    95 1.00D-06 EigRej= -1.00D+00 NBFU=    95
 ExpMin= 1.61D-01 ExpMax= 5.48D+03 ExpMxC= 8.25D+02 IAcc=3 IRadAn=         5 AccDes= 0.00D+00
 Harris functional with IExCor=  205 and IRadAn=       5 diagonalized for initial guess.
 HarFok:  IExCor=  205 AccDes= 0.00D+00 IRadAn=         5 IDoV= 1 UseB2=F ITyADJ=14
 ICtDFT=  3500011 ScaDFX=  1.000000  1.000000  1.000000  1.000000
 FoFCou: FMM=F IPFlag=           0 FMFlag=      100000 FMFlg1=           0
         NFxFlg=           0 DoJE=T BraDBF=F KetDBF=T FulRan=T
         wScrn=  0.000000 ICntrl=       500 IOpCl=  0 I1Cent=   200000004 NGrid=           0
         NMat0=    1 NMatS0=      1 NMatT0=    0 NMatD0=    1 NMtDS0=    0 NMtDT0=    0
 Petite list used in FoFCou.
 Keep R1 ints in memory in canonical form, NReq=11281941.
 Requested convergence on RMS density matrix=1.00D-08 within 128 cycles.
 Requested convergence on MAX density matrix=1.00D-06.
 Requested convergence on             energy=1.00D-06.
 No special actions if energy rises.
 SCF Done:  E(RHF) =  -232.142215672     A.U. after   12 cycles
            NFock= 12  Conv=0.35D-08     -V/T= 2.0009

 **********************************************************************

            Population analysis using the SCF density.

 **********************************************************************

 Orbital symmetries:
       Occupied  (A) (A) (A) (A) (A) (A) (A) (A) (A) (A) (A) (A)
                 (A) (A) (A) (A) (A) (A) (A) (A) (A)
       Virtual   (A) (A) (A) (A) (A) (A) (A) (A) (A) (A) (A) (A)
                 (A) (A) (A) (A) (A) (A) (A) (A) (A) (A) (A) (A)
                 (A) (A) (A) (A) (A) (A) (A) (A) (A) (A) (A) (A)
                 (A) (A) (A) (A) (A) (A) (A) (A) (A) (A) (A) (A)
                 (A) (A) (A) (A) (A) (A) (A) (A) (A) (A) (A) (A)
                 (A) (A) (A) (A) (A) (A) (A) (A) (A) (A) (A) (A)
                 (A) (A)
 The electronic state is 1-A.
 Alpha  occ. eigenvalues --  -20.54990 -11.26817 -11.26788 -11.21063 -11.20836
 Alpha  occ. eigenvalues --   -1.37456  -1.04080  -0.98591  -0.86172  -0.81336
 Alpha  occ. eigenvalues --   -0.67228  -0.64592  -0.64524  -0.57463  -0.54949
 Alpha  occ. eigenvalues --   -0.54419  -0.52367  -0.50217  -0.48721  -0.45676
 Alpha  occ. eigenvalues --   -0.40757
 Alpha virt. eigenvalues --    0.23499   0.26134   0.28081   0.29369   0.31637
 Alpha virt. eigenvalues --    0.32151   0.32707   0.33938   0.34474   0.36204
 Alpha virt. eigenvalues --    0.38131   0.41753   0.42901   0.46023   0.69953
 Alpha virt. eigenvalues --    0.73538   0.75547   0.76606   0.77451   0.79101
 Alpha virt. eigenvalues --    0.83957   0.87739   0.91528   0.94550   0.97283
 Alpha virt. eigenvalues --    1.05881   1.10701   1.13098   1.14053   1.16923
 Alpha virt. eigenvalues --    1.18133   1.19067   1.19837   1.21677   1.22844
 Alpha virt. eigenvalues --    1.25137   1.27120   1.31827   1.40283   1.43852
 Alpha virt. eigenvalues --    1.56500   1.63946   1.70079   1.74226   1.75634
 Alpha virt. eigenvalues --    1.86231   1.99340   2.02625   2.08822   2.18534
 Alpha virt. eigenvalues --    2.22961   2.26920   2.28322   2.32751   2.43897
 Alpha virt. eigenvalues --    2.44520   2.52000   2.55362   2.58461   2.64742
 Alpha virt. eigenvalues --    2.65798   2.68857   2.76496   2.80014   2.85885
 Alpha virt. eigenvalues --    3.00176   3.05138   3.20591   3.33991   4.37674
 Alpha virt. eigenvalues --    4.61926   4.62252   4.82241   4.88710
          Condensed to atoms (all electrons):
               1          2          3          4          5          6
     1  C    5.094350   0.365952  -0.000166   0.004735   0.389646   0.383141
     2  C    0.365952   4.769395  -0.004383  -0.045143  -0.035296  -0.037181
     3  C   -0.000166  -0.004383   5.160173   0.342478   0.000011   0.000007
     4  C    0.004735  -0.045143   0.342478   4.765378  -0.000079  -0.000122
     5  H    0.389646  -0.035296   0.000011  -0.000079   0.523321  -0.025372
     6  H    0.383141  -0.037181   0.000007  -0.000122  -0.025372   0.548336
     7  H    0.390715  -0.035241  -0.000001  -0.000207  -0.027585  -0.025724
     8  H   -0.043945   0.395892   0.002522  -0.000835   0.004853   0.000131
     9  H   -0.040576   0.398214  -0.000454  -0.008281  -0.005019  -0.000387
    10  H   -0.000040  -0.000070   0.388851  -0.035132   0.000001   0.000001
    11  H    0.000003   0.000062   0.377805  -0.033558  -0.000000  -0.000000
    12  H    0.000016   0.000962   0.390084  -0.032559  -0.000002   0.000001
    13  H   -0.000173  -0.009060  -0.055210   0.397573  -0.000009   0.000013
    14  H   -0.000109   0.005196  -0.049186   0.415140  -0.000018   0.000001
    15  O   -0.056297   0.209518  -0.052044   0.213693   0.001996   0.002962
               7          8          9         10         11         12
     1  C    0.390715  -0.043945  -0.040576  -0.000040   0.000003   0.000016
     2  C   -0.035241   0.395892   0.398214  -0.000070   0.000062   0.000962
     3  C   -0.000001   0.002522  -0.000454   0.388851   0.377805   0.390084
     4  C   -0.000207  -0.000835  -0.008281  -0.035132  -0.033558  -0.032559
     5  H   -0.027585   0.004853  -0.005019   0.000001  -0.000000  -0.000002
     6  H   -0.025724   0.000131  -0.000387   0.000001  -0.000000   0.000001
     7  H    0.524374  -0.005299   0.004716   0.000008   0.000000   0.000006
     8  H   -0.005299   0.607802  -0.052248   0.000073  -0.000195  -0.000942
     9  H    0.004716  -0.052248   0.602242   0.000051   0.000038   0.000079
    10  H    0.000008   0.000073   0.000051   0.523061  -0.024914  -0.028257
    11  H    0.000000  -0.000195   0.000038  -0.024914   0.548493  -0.027445
    12  H    0.000006  -0.000942   0.000079  -0.028257  -0.027445   0.537515
    13  H    0.000023  -0.000881   0.008633   0.004680   0.000895  -0.003831
    14  H    0.000006  -0.000333   0.000061  -0.003795  -0.000735   0.003917
    15  O    0.001524  -0.043606  -0.042757   0.001245   0.003054  -0.000456
              13         14         15
     1  C   -0.000173  -0.000109  -0.056297
     2  C   -0.009060   0.005196   0.209518
     3  C   -0.055210  -0.049186  -0.052044
     4  C    0.397573   0.415140   0.213693
     5  H   -0.000009  -0.000018   0.001996
     6  H    0.000013   0.000001   0.002962
     7  H    0.000023   0.000006   0.001524
     8  H   -0.000881  -0.000333  -0.043606
     9  H    0.008633   0.000061  -0.042757
    10  H    0.004680  -0.003795   0.001245
    11  H    0.000895  -0.000735   0.003054
    12  H   -0.003831   0.003917  -0.000456
    13  H    0.594766  -0.034454  -0.039125
    14  H   -0.034454   0.533665  -0.038585
    15  O   -0.039125  -0.038585   8.459409
 Mulliken charges:
               1
     1  C   -0.487252
     2  C    0.021184
     3  C   -0.500488
     4  C    0.016920
     5  H    0.173551
     6  H    0.154194
     7  H    0.172685
     8  H    0.137010
     9  H    0.135688
    10  H    0.174238
    11  H    0.156496
    12  H    0.160914
    13  H    0.136161
    14  H    0.169228
    15  O   -0.620529
 Sum of Mulliken charges =  -0.00000
 Mulliken charges with hydrogens summed into heavy atoms:
               1
     1  C    0.013177
     2  C    0.293882
     3  C   -0.008839
     4  C    0.322309
    15  O   -0.620529
 Electronic spatial extent (au):  <R**2>=            588.8608
 Charge=             -0.0000 electrons
 Dipole moment (field-independent basis, Debye):
    X=             -0.3900    Y=              0.5856    Z=              1.1258  Tot=              1.3276
 Quadrupole moment (field-independent basis, Debye-Ang):
   XX=            -31.0508   YY=            -33.4772   ZZ=            -33.5198
   XY=              1.2259   XZ=              0.4382   YZ=             -0.4658
 Traceless Quadrupole moment (field-independent basis, Debye-Ang):
   XX=              1.6318   YY=             -0.7946   ZZ=             -0.8372
   XY=              1.2259   XZ=              0.4382   YZ=             -0.4658
 Octapole moment (field-independent basis, Debye-Ang**2):
  XXX=             -1.1305  YYY=             -2.5257  ZZZ=             -1.4389  XYY=             -0.1332
  XXY=             -2.7724  XXZ=              0.0495  XZZ=              0.0150  YZZ=             -0.2572
  YYZ=             -0.1500  XYZ=             -0.1594
 Hexadecapole moment (field-independent basis, Debye-Ang**3):
 XXXX=           -616.8504 YYYY=           -106.5863 ZZZZ=            -76.8193 XXXY=              5.1272
 XXXZ=              0.7549 YYYX=              1.6169 YYYZ=              2.2849 ZZZX=              0.9100
 ZZZY=             -1.3792 XXYY=           -120.0111 XXZZ=           -115.4046 YYZZ=            -30.8019
 XXYZ=              1.6187 YYXZ=              0.5648 ZZXY=              1.1452
 N-N= 1.924703707861D+02 E-N=-9.279781925055D+02  KE= 2.319338684614D+02
 Calling FoFJK, ICntrl=      2127 FMM=F ISym2X=0 I1Cent= 0 IOpClX= 0 NMat=1 NMatS=1 NMatT=0.
 ***** Axes restored to original set *****
 -------------------------------------------------------------------
 Center     Atomic                   Forces (Hartrees/Bohr)
 Number     Number              X              Y              Z
 -------------------------------------------------------------------
      1        6          -0.000049881    0.000029292   -0.000053858
      2        6           0.000107176   -0.000042473    0.000078907
      3        6           0.000049113    0.000000445   -0.000025138
      4        6          -0.000041045   -0.000036176    0.000026110
      5        1           0.000106346    0.000044103   -0.000040948
      6        1          -0.000038713    0.000109073    0.000012423
      7        1          -0.000056424   -0.000068705    0.000094296
      8        1           0.000033589   -0.000010254    0.000033338
      9        1           0.000011925   -0.000005881   -0.000012478
     10        1          -0.000033431   -0.000024970   -0.000029352
     11        1           0.000042168    0.000063140    0.000026812
     12        1          -0.000087587    0.000070095   -0.000107356
     13        1           0.000054529   -0.000037469   -0.000075152
     14        1          -0.000018048   -0.000035125    0.000116370
     15        8          -0.000079718   -0.000055096   -0.000043974
 -------------------------------------------------------------------
 Cartesian Forces:  Max     0.000116370 RMS     0.000057751

 GradGradGradGradGradGradGradGradGradGradGradGradGradGradGradGradGradGrad
 Berny optimization.
 Search for a local minimum.
 Step number   1 out of a maximum of    2
 All quantities printed in internal units (Hartrees-Bohrs-Radians)
 Second derivative matrix not updated -- first step.
 ITU=  0
     Eigenvalues ---    0.00157   0.00279   0.00343   0.00675   0.01155
     Eigenvalues ---    0.01937   0.03482   0.04254   0.04738   0.05169
     Eigenvalues ---    0.05255   0.06028   0.07481   0.07622   0.09171
     Eigenvalues ---    0.09772   0.12343   0.13265   0.13531   0.13811
     Eigenvalues ---    0.14407   0.15332   0.16345   0.20100   0.22233
     Eigenvalues ---    0.29922   0.32157   0.53161   0.58334   0.77784
     Eigenvalues ---    0.79217   0.85591   0.88684   0.96511   1.00180
     Eigenvalues ---    1.02796   1.04136   1.14380   1.32769
 Angle between quadratic step and forces=  54.00 degrees.
 Linear search not attempted -- first point.
 B after Tr=    -0.000853   -0.002765    0.000921
         Rot=    1.000000    0.000070    0.000018    0.000147 Ang=   0.02 deg.
 Variable       Old X    -DE/DX   Delta X   Delta X   Delta X     New X
                                 (Linear)    (Quad)   (Total)
    X1       -5.37994  -0.00005   0.00000   0.00202   0.00219  -5.37775
    Y1        3.46386   0.00003   0.00000   0.00591   0.00472   3.46859
    Z1        0.02823  -0.00005   0.00000   0.00264   0.00288   0.03111
    X2       -3.29013   0.00011   0.00000   0.00100   0.00139  -3.28873
    Y2        4.44604  -0.00004   0.00000  -0.00188  -0.00343   4.44261
    Z2        1.72527   0.00008   0.00000   0.00830   0.00848   1.73375
    X3       -1.93750   0.00005   0.00000  -0.00179  -0.00125  -1.93874
    Y3        5.65728   0.00000   0.00000   0.00498   0.00382   5.66110
    Z3        7.38235  -0.00003   0.00000  -0.01389  -0.01383   7.36852
    X4       -1.27822  -0.00004   0.00000  -0.00086  -0.00090  -1.27912
    Y4        3.47866  -0.00004   0.00000  -0.00877  -0.01037   3.46829
    Z4        5.62012   0.00003   0.00000   0.00342   0.00381   5.62392
    X5       -5.03768   0.00011   0.00000   0.01644   0.01605  -5.02163
    Y5        1.50416   0.00004   0.00000   0.01563   0.01427   1.51843
    Z5       -0.46105  -0.00004   0.00000  -0.02605  -0.02553  -0.48658
    X6       -5.48121  -0.00004   0.00000  -0.01300  -0.01244  -5.49365
    Y6        4.56311   0.00011   0.00000   0.02991   0.02852   4.59163
    Z6       -1.70114   0.00001   0.00000   0.01861   0.01869  -1.68245
    X7       -7.18969  -0.00006   0.00000   0.00469   0.00484  -7.18484
    Y7        3.58031  -0.00007   0.00000  -0.02184  -0.02236   3.55794
    Z7        0.98116   0.00009   0.00000   0.01164   0.01180   0.99296
    X8       -3.64643   0.00003   0.00000  -0.00277  -0.00182  -3.64825
    Y8        6.40972  -0.00001   0.00000  -0.00565  -0.00704   6.40268
    Z8        2.21944   0.00003   0.00000   0.02051   0.02040   2.23984
    X9       -1.48092   0.00001   0.00000   0.00130   0.00171  -1.47921
    Y9        4.37970  -0.00001   0.00000   0.00795   0.00572   4.38543
    Z9        0.74443  -0.00001   0.00000   0.00809   0.00834   0.75277
   X10       -3.70250  -0.00003   0.00000  -0.00154  -0.00114  -3.70364
   Y10        5.27441  -0.00002   0.00000   0.01084   0.01033   5.28474
   Z10        8.35108  -0.00003   0.00000  -0.01100  -0.01095   8.34013
   X11       -0.46426   0.00004   0.00000  -0.00178  -0.00121  -0.46547
   Y11        5.89690   0.00006   0.00000   0.01931   0.01791   5.91481
   Z11        8.79122   0.00003   0.00000  -0.01611  -0.01603   8.77519
   X12       -2.13115  -0.00009   0.00000  -0.00507  -0.00398  -2.13513
   Y12        7.43078   0.00007   0.00000  -0.00392  -0.00517   7.42562
   Z12        6.37307  -0.00011   0.00000  -0.02960  -0.02979   6.34327
   X13        0.48409   0.00005   0.00000   0.00184   0.00195   0.48604
   Y13        3.86587  -0.00004   0.00000  -0.01754  -0.01979   3.84607
   Z13        4.63058  -0.00008   0.00000   0.00435   0.00475   4.63533
   X14       -1.00230  -0.00002   0.00000  -0.00667  -0.00725  -1.00955
   Y14        1.77082  -0.00004   0.00000  -0.00285  -0.00437   1.76644
   Z14        6.71370   0.00012   0.00000   0.01459   0.01523   6.72894
   X15       -3.19684  -0.00008   0.00000   0.00200   0.00186  -3.19498
   Y15        2.92826  -0.00006   0.00000  -0.01148  -0.01276   2.91550
   Z15        3.88566  -0.00004   0.00000   0.00135   0.00174   3.88740
         Item               Value     Threshold  Converged?
 Maximum Force            0.000116     0.000450     YES
 RMS     Force            0.000058     0.000300     YES
 Maximum Displacement     0.029792     0.001800     NO 
 RMS     Displacement     0.012245     0.001200     NO 
 Predicted change in Energy=-9.377751D-06
 GradGradGradGradGradGradGradGradGradGradGradGradGradGradGradGradGradGrad

 1\1\GINC-MU01\Force\RHF\6-31G(d)\C4H10O1\LBL8\15-Sep-2025\0\\# hf/6-31
 G(d) force\\Force calculation\\0,1\C,-2.84694082,1.83299807,0.01493689
 \C,-1.74105947,2.35274459,0.91297196\C,-1.02527935,2.99370389,3.906573
 62\C,-0.67640264,1.84082881,2.97403755\H,-2.66582689,0.79596824,-0.243
 97625\H,-2.90053254,2.41469517,-0.9002034\H,-3.80461889,1.8946166,0.51
 92053\H,-1.92960541,3.39187725,1.17447713\H,-0.78366808,2.31764004,0.3
 9393567\H,-1.95927901,2.79109819,4.4192016\H,-0.24567595,3.12050629,4.
 65211395\H,-1.12775722,3.93220141,3.37248175\H,0.25617041,2.04572766,2
 .45039723\H,-0.53039222,0.93707749,3.55273952\O,-1.69169631,1.54957013
 ,2.05620251\\Version=ES64L-G16RevA.03\State=1-A\HF=-232.1422157\RMSD=3
 .511e-09\RMSF=5.775e-05\Dipole=0.332804,0.3970658,-0.0663146\Quadrupol
 e=0.0455438,-1.0916174,1.0460736,-0.4864889,0.7847113,-0.4055224\PG=C0
 1 [X(C4H10O1)]\\@


 Statistics are no substitute for judgment.
                            -- Henry Clay
 Job cpu time:       0 days  0 hours  0 minutes  2.4 seconds.
 Elapsed time:       0 days  0 hours  0 minutes  2.4 seconds.
 File lengths (MBytes):  RWF=     22 Int=      0 D2E=      0 Chk=      3 Scr=      2
 Normal termination of Gaussian 16 at Mon Sep 15 21:32:59 2025.
