 Entering Gaussian System, Link 0=g16
 Input=gauss.gjf
 Output=gauss.log
 Initial command:
 /software/Applications/gaussian/G16.A03.AVX/g16/l1.exe "/home/lbl8/code/hartree-fock_geomopt-rev-3/example/Gau-3231927.inp" -scrdir="/home/lbl8/code/hartree-fock_geomopt-rev-3/example/"
 Entering Link 1 = /software/Applications/gaussian/G16.A03.AVX/g16/l1.exe PID=   3231929.
  
 Copyright (c) 1988,1990,1992,1993,1995,1998,2003,2009,2016,
            Gaussian, Inc.  All Rights Reserved.
  
 This is part of the Gaussian(R) 16 program.  It is based on
 the Gaussian(R) 09 system (copyright 2009, Gaussian, Inc.),
 the Gaussian(R) 03 system (copyright 2003, Gaussian, Inc.),
 the Gaussian(R) 98 system (copyright 1998, Gaussian, Inc.),
 the Gaussian(R) 94 system (copyright 1995, Gaussian, Inc.),
 the Gaussian 92(TM) system (copyright 1992, Gaussian, Inc.),
 the Gaussian 90(TM) system (copyright 1990, Gaussian, Inc.),
 the Gaussian 88(TM) system (copyright 1988, Gaussian, Inc.),
 the Gaussian 86(TM) system (copyright 1986, Carnegie Mellon
 University), and the Gaussian 82(TM) system (copyright 1983,
 Carnegie Mellon University). Gaussian is a federally registered
 trademark of Gaussian, Inc.
  
 This software contains proprietary and confidential information,
 including trade secrets, belonging to Gaussian, Inc.
  
 This software is provided under written license and may be
 used, copied, transmitted, or stored only in accord with that
 written license.
  
 The following legend is applicable only to US Government
 contracts under FAR:
  
                    RESTRICTED RIGHTS LEGEND
  
 Use, reproduction and disclosure by the US Government is
 subject to restrictions as set forth in subparagraphs (a)
 and (c) of the Commercial Computer Software - Restricted
 Rights clause in FAR 52.227-19.
  
 Gaussian, Inc.
 340 Quinnipiac St., Bldg. 40, Wallingford CT 06492
  
  
 ---------------------------------------------------------------
 Warning -- This program may not be used in any manner that
 competes with the business of Gaussian, Inc. or will provide
 assistance to any competitor of Gaussian, Inc.  The licensee
 of this program is prohibited from giving any competitor of
 Gaussian, Inc. access to this program.  By using this program,
 the user acknowledges that Gaussian, Inc. is engaged in the
 business of creating and licensing software in the field of
 computational chemistry and represents and warrants to the
 licensee that it is not a competitor of Gaussian, Inc. and that
 it will not use this program in any manner prohibited above.
 ---------------------------------------------------------------
  

 Cite this work as:
 Gaussian 16, Revision A.03,
 M. J. Frisch, G. W. Trucks, H. B. Schlegel, G. E. Scuseria, 
 M. A. Robb, J. R. Cheeseman, G. Scalmani, V. Barone, 
 G. A. Petersson, H. Nakatsuji, X. Li, M. Caricato, A. V. Marenich, 
 J. Bloino, B. G. Janesko, R. Gomperts, B. Mennucci, H. P. Hratchian, 
 J. V. Ortiz, A. F. Izmaylov, J. L. Sonnenberg, D. Williams-Young, 
 F. Ding, F. Lipparini, F. Egidi, J. Goings, B. Peng, A. Petrone, 
 T. Henderson, D. Ranasinghe, V. G. Zakrzewski, J. Gao, N. Rega, 
 G. Zheng, W. Liang, M. Hada, M. Ehara, K. Toyota, R. Fukuda, 
 J. Hasegawa, M. Ishida, T. Nakajima, Y. Honda, O. Kitao, H. Nakai, 
 T. Vreven, K. Throssell, J. A. Montgomery, Jr., J. E. Peralta, 
 F. Ogliaro, M. J. Bearpark, J. J. Heyd, E. N. Brothers, K. N. Kudin, 
 V. N. Staroverov, T. A. Keith, R. Kobayashi, J. Normand, 
 K. Raghavachari, A. P. Rendell, J. C. Burant, S. S. Iyengar, 
 J. Tomasi, M. Cossi, J. M. Millam, M. Klene, C. Adamo, R. Cammi, 
 J. W. Ochterski, R. L. Martin, K. Morokuma, O. Farkas, 
 J. B. Foresman, and D. J. Fox, Gaussian, Inc., Wallingford CT, 2016.
 
 ******************************************
 Gaussian 16:  ES64L-G16RevA.03 25-Dec-2016
                15-Sep-2025 
 ******************************************
 %chk=gauss.chk
 -------------------
 # hf/6-31G(d) force
 -------------------
 1/10=7,30=1,38=1/1,3;
 2/12=2,17=6,18=5,40=1/2;
 3/5=1,6=6,7=1,11=9,25=1,30=1,71=1/1,2,3;
 4//1;
 5/5=2,38=5/2;
 6/7=2,8=2,9=2,10=2,28=1/1;
 7/29=1/1,2,3,16;
 1/10=7,30=1/3;
 99//99;
 -----------------
 Force calculation
 -----------------
 Symbolic Z-matrix:
 Charge =  0 Multiplicity = 1
 C                    -2.67716   0.49567  -0.05085 
 C                    -2.04183   1.22904   1.1345 
 C                    -0.89028   0.50009   1.83407 
 F                     0.12663   0.3557    1.01832 
 F                    -3.58146   1.27306  -0.5959 
 F                    -3.25306  -0.61264   0.35098 
 F                    -1.58052   2.39255   0.6959 
 F                    -2.99225   1.44576   2.03434 
 F                    -0.50781   1.20663   2.87002 
 F                    -1.27854  -0.68495   2.2448 
 F                    -1.7683    0.20157  -0.9513 
 

 GradGradGradGradGradGradGradGradGradGradGradGradGradGradGradGradGradGrad
 Berny optimization.
 Initialization pass.
 Trust Radius=3.00D-01 FncErr=1.00D-07 GrdErr=1.00D-07 EigMax=2.50D+02 EigMin=1.00D-04
 Number of steps in this run=      2 maximum allowed number of steps=      2.
 GradGradGradGradGradGradGradGradGradGradGradGradGradGradGradGradGradGrad

                          Input orientation:                          
 ---------------------------------------------------------------------
 Center     Atomic      Atomic             Coordinates (Angstroms)
 Number     Number       Type             X           Y           Z
 ---------------------------------------------------------------------
      1          6           0       -2.677161    0.495666   -0.050850
      2          6           0       -2.041829    1.229040    1.134503
      3          6           0       -0.890278    0.500091    1.834065
      4          9           0        0.126626    0.355696    1.018318
      5          9           0       -3.581462    1.273064   -0.595905
      6          9           0       -3.253061   -0.612640    0.350985
      7          9           0       -1.580518    2.392552    0.695903
      8          9           0       -2.992253    1.445761    2.034339
      9          9           0       -0.507807    1.206627    2.870023
     10          9           0       -1.278536   -0.684952    2.244801
     11          9           0       -1.768299    0.201574   -0.951303
 ---------------------------------------------------------------------
                    Distance matrix (angstroms):
                    1          2          3          4          5
     1  C    0.000000
     2  C    1.531844   0.000000
     3  C    2.597282   1.531934   0.000000
     4  F    3.003986   2.340604   1.311635   0.000000
     5  F    1.311180   2.316618   3.707386   4.146950   0.000000
     6  F    1.312049   2.339395   3.003405   3.578449   2.135492
     7  F    2.314831   1.326250   2.313709   2.677139   2.631691
     8  F    2.313001   1.326642   2.313591   3.456580   2.700957
     9  F    3.707164   2.316410   1.310986   2.134338   4.632972
    10  F    2.935987   2.340671   1.312927   2.135811   4.148120
    11  F    1.312759   2.341174   2.935696   2.737500   2.135874
                    6          7          8          9         10
     6  F    0.000000
     7  F    3.456522   0.000000
     8  F    2.671838   2.163520   0.000000
     9  F    4.146288   2.698875   2.632115   0.000000
    10  F    2.736881   3.458512   2.742455   2.136117   0.000000
    11  F    2.136215   2.747532   3.458341   4.147470   3.352742
                   11
    11  F    0.000000
 Stoichiometry    C3F8
 Framework group  C1[X(C3F8)]
 Deg. of freedom    27
 Full point group                 C1      NOp   1
 Largest Abelian subgroup         C1      NOp   1
 Largest concise Abelian subgroup C1      NOp   1
                         Standard orientation:                         
 ---------------------------------------------------------------------
 Center     Atomic      Atomic             Coordinates (Angstroms)
 Number     Number       Type             X           Y           Z
 ---------------------------------------------------------------------
      1          6           0       -1.298764   -0.231668   -0.000530
      2          6           0       -0.000217    0.580935   -0.000349
      3          6           0        1.298519   -0.231535   -0.000458
      4          9           0        1.405942   -0.928143   -1.106616
      5          9           0       -2.315182    0.592094   -0.087148
      6          9           0       -1.405234   -0.926126    1.107561
      7          9           0        0.000825    1.350462   -1.080518
      8          9           0       -0.000758    1.346661    1.082998
      9          9           0        2.314633    0.592533    0.083856
     10          9           0        1.327480   -1.051959    1.024159
     11          9           0       -1.327396   -1.054012   -1.023402
 ---------------------------------------------------------------------
 Rotational constants (GHZ):           1.7207386           0.9770429           0.9210871
 Standard basis: 6-31G(d) (6D, 7F)
 There are   165 symmetry adapted cartesian basis functions of A   symmetry.
 There are   165 symmetry adapted basis functions of A   symmetry.
   165 basis functions,   308 primitive gaussians,   165 cartesian basis functions
    45 alpha electrons       45 beta electrons
       nuclear repulsion energy       806.9069706857 Hartrees.
 NAtoms=   11 NActive=   11 NUniq=   11 SFac= 1.00D+00 NAtFMM=   60 NAOKFM=F Big=F
 Integral buffers will be    131072 words long.
 Raffenetti 1 integral format.
 Two-electron integral symmetry is turned on.
 One-electron integrals computed using PRISM.
 NBasis=   165 RedAO= T EigKep=  1.54D-03  NBF=   165
 NBsUse=   165 1.00D-06 EigRej= -1.00D+00 NBFU=   165
 ExpMin= 1.69D-01 ExpMax= 7.00D+03 ExpMxC= 1.05D+03 IAcc=3 IRadAn=         5 AccDes= 0.00D+00
 Harris functional with IExCor=  205 and IRadAn=       5 diagonalized for initial guess.
 HarFok:  IExCor=  205 AccDes= 0.00D+00 IRadAn=         5 IDoV= 1 UseB2=F ITyADJ=14
 ICtDFT=  3500011 ScaDFX=  1.000000  1.000000  1.000000  1.000000
 FoFCou: FMM=F IPFlag=           0 FMFlag=      100000 FMFlg1=           0
         NFxFlg=           0 DoJE=T BraDBF=F KetDBF=T FulRan=T
         wScrn=  0.000000 ICntrl=       500 IOpCl=  0 I1Cent=   200000004 NGrid=           0
         NMat0=    1 NMatS0=      1 NMatT0=    0 NMatD0=    1 NMtDS0=    0 NMtDT0=    0
 Petite list used in FoFCou.
 Keep R1 ints in memory in canonical form, NReq=96071382.
 Requested convergence on RMS density matrix=1.00D-08 within 128 cycles.
 Requested convergence on MAX density matrix=1.00D-06.
 Requested convergence on             energy=1.00D-06.
 No special actions if energy rises.
 SCF Done:  E(RHF) =  -909.125455273     A.U. after   11 cycles
            NFock= 11  Conv=0.52D-08     -V/T= 2.0019

 **********************************************************************

            Population analysis using the SCF density.

 **********************************************************************

 Orbital symmetries:
       Occupied  (A) (A) (A) (A) (A) (A) (A) (A) (A) (A) (A) (A)
                 (A) (A) (A) (A) (A) (A) (A) (A) (A) (A) (A) (A)
                 (A) (A) (A) (A) (A) (A) (A) (A) (A) (A) (A) (A)
                 (A) (A) (A) (A) (A) (A) (A) (A) (A)
       Virtual   (A) (A) (A) (A) (A) (A) (A) (A) (A) (A) (A) (A)
                 (A) (A) (A) (A) (A) (A) (A) (A) (A) (A) (A) (A)
                 (A) (A) (A) (A) (A) (A) (A) (A) (A) (A) (A) (A)
                 (A) (A) (A) (A) (A) (A) (A) (A) (A) (A) (A) (A)
                 (A) (A) (A) (A) (A) (A) (A) (A) (A) (A) (A) (A)
                 (A) (A) (A) (A) (A) (A) (A) (A) (A) (A) (A) (A)
                 (A) (A) (A) (A) (A) (A) (A) (A) (A) (A) (A) (A)
                 (A) (A) (A) (A) (A) (A) (A) (A) (A) (A) (A) (A)
                 (A) (A) (A) (A) (A) (A) (A) (A) (A) (A) (A) (A)
                 (A) (A) (A) (A) (A) (A) (A) (A) (A) (A) (A) (A)
 The electronic state is 1-A.
 Alpha  occ. eigenvalues --  -26.37940 -26.37922 -26.37842 -26.37838 -26.37734
 Alpha  occ. eigenvalues --  -26.37728 -26.37505 -26.37483 -11.54744 -11.54735
 Alpha  occ. eigenvalues --  -11.47921  -1.78911  -1.77857  -1.73181  -1.68381
 Alpha  occ. eigenvalues --   -1.67740  -1.67563  -1.67532  -1.66397  -1.12521
 Alpha  occ. eigenvalues --   -1.02796  -0.95722  -0.90807  -0.88826  -0.87802
 Alpha  occ. eigenvalues --   -0.86526  -0.85658  -0.85508  -0.81563  -0.76146
 Alpha  occ. eigenvalues --   -0.75303  -0.74766  -0.73676  -0.73420  -0.73119
 Alpha  occ. eigenvalues --   -0.72309  -0.70291  -0.70172  -0.68540  -0.68538
 Alpha  occ. eigenvalues --   -0.68385  -0.67431  -0.67274  -0.63287  -0.56017
 Alpha virt. eigenvalues --    0.25270   0.26019   0.37973   0.38926   0.41919
 Alpha virt. eigenvalues --    0.44323   0.45838   0.49097   0.51637   0.55353
 Alpha virt. eigenvalues --    0.64088   0.64910   0.69174   0.69310   0.70425
 Alpha virt. eigenvalues --    0.76513   0.77873   0.85334   0.87114   0.88270
 Alpha virt. eigenvalues --    1.10220   1.11287   1.20290   1.24778   1.26732
 Alpha virt. eigenvalues --    1.30059   1.33421   1.34868   1.35869   1.37185
 Alpha virt. eigenvalues --    1.42107   1.44175   1.50588   1.55157   1.55454
 Alpha virt. eigenvalues --    1.56425   1.56684   1.59388   1.60240   1.61625
 Alpha virt. eigenvalues --    1.62848   1.63847   1.64030   1.64331   1.65290
 Alpha virt. eigenvalues --    1.67295   1.67728   1.70593   1.71437   1.73611
 Alpha virt. eigenvalues --    1.79037   1.84643   1.86708   1.87728   1.87991
 Alpha virt. eigenvalues --    1.95806   1.96754   1.97308   2.00300   2.04414
 Alpha virt. eigenvalues --    2.05063   2.06753   2.07959   2.09496   2.09934
 Alpha virt. eigenvalues --    2.10579   2.15713   2.18469   2.21628   2.25749
 Alpha virt. eigenvalues --    2.29285   2.30557   2.30654   2.30901   2.31463
 Alpha virt. eigenvalues --    2.37454   2.37753   2.39039   2.41490   2.42924
 Alpha virt. eigenvalues --    2.43361   2.47161   2.48409   2.54090   2.62964
 Alpha virt. eigenvalues --    2.65657   2.66177   2.70198   2.71483   2.78434
 Alpha virt. eigenvalues --    2.80939   2.81221   2.94761   3.02105   3.02197
 Alpha virt. eigenvalues --    3.15117   3.16546   3.18572   3.27696   3.27787
 Alpha virt. eigenvalues --    3.28370   3.37877   3.40957   3.42248   3.42792
 Alpha virt. eigenvalues --    3.46364   3.49904   3.50394   3.53463   4.56278
 Alpha virt. eigenvalues --    4.66413   4.75555   4.84224   5.08403   5.21165
 Alpha virt. eigenvalues --    5.62410   5.69189   6.07924   6.28707   6.36698
          Condensed to atoms (all electrons):
               1          2          3          4          5          6
     1  C    3.779595   0.365486  -0.059455   0.004158   0.295279   0.281974
     2  C    0.365486   4.439840   0.365527  -0.037930  -0.026174  -0.038098
     3  C   -0.059455   0.365527   3.779596   0.282178   0.001526   0.004165
     4  F    0.004158  -0.037930   0.282178   9.156459  -0.000001  -0.000073
     5  F    0.295279  -0.026174   0.001526  -0.000001   9.139375  -0.034436
     6  F    0.281974  -0.038098   0.004165  -0.000073  -0.034436   9.156917
     7  F   -0.018973   0.216471  -0.019250   0.001119   0.000572   0.000354
     8  F   -0.019314   0.215877  -0.019055   0.000355   0.000498   0.001136
     9  F    0.001527  -0.026213   0.295360  -0.034603  -0.000001  -0.000001
    10  F    0.007512  -0.039948   0.280149  -0.033343  -0.000000  -0.000269
    11  F    0.280179  -0.039786   0.007512  -0.000269  -0.034360  -0.033288
               7          8          9         10         11
     1  C   -0.018973  -0.019314   0.001527   0.007512   0.280179
     2  C    0.216471   0.215877  -0.026213  -0.039948  -0.039786
     3  C   -0.019250  -0.019055   0.295360   0.280149   0.007512
     4  F    0.001119   0.000355  -0.034603  -0.033343  -0.000269
     5  F    0.000572   0.000498  -0.000001  -0.000000  -0.034360
     6  F    0.000354   0.001136  -0.000001  -0.000269  -0.033288
     7  F    9.209781  -0.027968   0.000501   0.000358   0.000920
     8  F   -0.027968   9.210864   0.000575   0.000942   0.000359
     9  F    0.000501   0.000575   9.139351  -0.034301  -0.000000
    10  F    0.000358   0.000942  -0.034301   9.159120  -0.000285
    11  F    0.000920   0.000359  -0.000000  -0.000285   9.158751
 Mulliken charges:
               1
     1  C    1.082032
     2  C    0.604948
     3  C    1.081746
     4  F   -0.338050
     5  F   -0.342277
     6  F   -0.338380
     7  F   -0.363886
     8  F   -0.364269
     9  F   -0.342196
    10  F   -0.339936
    11  F   -0.339733
 Sum of Mulliken charges =  -0.00000
 Mulliken charges with hydrogens summed into heavy atoms:
               1
     1  C    1.082032
     2  C    0.604948
     3  C    1.081746
     4  F   -0.338050
     5  F   -0.342277
     6  F   -0.338380
     7  F   -0.363886
     8  F   -0.364269
     9  F   -0.342196
    10  F   -0.339936
    11  F   -0.339733
 Electronic spatial extent (au):  <R**2>=           1281.7350
 Charge=             -0.0000 electrons
 Dipole moment (field-independent basis, Debye):
    X=             -0.0021    Y=             -0.1281    Z=             -0.0068  Tot=              0.1283
 Quadrupole moment (field-independent basis, Debye-Ang):
   XX=            -56.8245   YY=            -57.2327   ZZ=            -57.2926
   XY=              0.0010   XZ=              0.0089   YZ=             -0.0007
 Traceless Quadrupole moment (field-independent basis, Debye-Ang):
   XX=              0.2921   YY=             -0.1161   ZZ=             -0.1760
   XY=              0.0010   XZ=              0.0089   YZ=             -0.0007
 Octapole moment (field-independent basis, Debye-Ang**2):
  XXX=              0.0015  YYY=             -1.5241  ZZZ=             -0.0110  XYY=             -0.0017
  XXY=             -1.9678  XXZ=              0.0089  XZZ=              0.0020  YZZ=              0.5580
  YYZ=              0.0085  XYZ=             -0.2031
 Hexadecapole moment (field-independent basis, Debye-Ang**3):
 XXXX=           -670.2444 YYYY=           -283.3160 ZZZZ=           -227.8993 XXXY=              0.0053
 XXXZ=             -0.4311 YYYX=             -0.0016 YYYZ=              0.0012 ZZZX=              0.6109
 ZZZY=             -0.0078 XXYY=           -158.4355 XXZZ=           -150.3798 YYZZ=            -88.5253
 XXYZ=              0.0053 YYXZ=             -0.3486 ZZXY=              0.0013
 N-N= 8.069069706857D+02 E-N=-3.780214180187D+03  KE= 9.074165158167D+02
 Calling FoFJK, ICntrl=      2127 FMM=F ISym2X=0 I1Cent= 0 IOpClX= 0 NMat=1 NMatS=1 NMatT=0.
 ***** Axes restored to original set *****
 -------------------------------------------------------------------
 Center     Atomic                   Forces (Hartrees/Bohr)
 Number     Number              X              Y              Z
 -------------------------------------------------------------------
      1        6          -0.000320658   -0.000376046   -0.000310776
      2        6          -0.000139038   -0.000053310    0.000295211
      3        6           0.000393504   -0.000389637    0.000226442
      4        9          -0.000496236    0.000054269    0.000332641
      5        9           0.000432051   -0.000764363    0.000362647
      6        9           0.000373449    0.000855772   -0.000523107
      7        9           0.000208397   -0.000090408    0.000162794
      8        9          -0.000070590    0.000064476   -0.000388489
      9        9          -0.000058528   -0.000418161   -0.000507299
     10        9           0.000282629    0.000842620   -0.000050329
     11        9          -0.000604979    0.000274788    0.000400266
 -------------------------------------------------------------------
 Cartesian Forces:  Max     0.000855772 RMS     0.000400142

 GradGradGradGradGradGradGradGradGradGradGradGradGradGradGradGradGradGrad
 Berny optimization.
 Search for a local minimum.
 Step number   1 out of a maximum of    2
 All quantities printed in internal units (Hartrees-Bohrs-Radians)
 Second derivative matrix not updated -- first step.
 ITU=  0
     Eigenvalues ---    0.00207   0.00321   0.01380   0.03383   0.05339
     Eigenvalues ---    0.05351   0.05402   0.06864   0.08543   0.09232
     Eigenvalues ---    0.12487   0.14563   0.15191   0.15861   0.18465
     Eigenvalues ---    0.21678   0.24561   0.36818   0.65765   1.01598
     Eigenvalues ---    1.21866   1.29904   1.47841   1.62767   1.63652
     Eigenvalues ---    1.68786   1.73536
 Angle between quadratic step and forces=  81.04 degrees.
 Linear search not attempted -- first point.
 B after Tr=    -0.000104    0.000058   -0.000269
         Rot=    1.000000    0.000014   -0.000039   -0.000013 Ang=   0.00 deg.
 Variable       Old X    -DE/DX   Delta X   Delta X   Delta X     New X
                                 (Linear)    (Quad)   (Total)
    X1       -5.05910  -0.00032   0.00000   0.00583   0.00570  -5.05340
    Y1        0.93667  -0.00038   0.00000   0.00405   0.00398   0.94065
    Z1       -0.09609  -0.00031   0.00000  -0.00588  -0.00578  -0.10187
    X2       -3.85850  -0.00014   0.00000   0.00011   0.00012  -3.85838
    Y2        2.32255  -0.00005   0.00000  -0.00062  -0.00061   2.32194
    Z2        2.14390   0.00030   0.00000   0.00056   0.00053   2.14443
    X3       -1.68238   0.00039   0.00000  -0.00614  -0.00600  -1.68838
    Y3        0.94504  -0.00039   0.00000  -0.00447  -0.00436   0.94067
    Z3        3.46588   0.00023   0.00000   0.00721   0.00705   3.47293
    X4        0.23929  -0.00050   0.00000  -0.02121  -0.02118   0.21811
    Y4        0.67217   0.00005   0.00000  -0.04995  -0.04984   0.62233
    Z4        1.92434   0.00033   0.00000  -0.00202  -0.00232   1.92202
    X5       -6.76798   0.00043   0.00000  -0.02816  -0.02842  -6.79640
    Y5        2.40574  -0.00076   0.00000  -0.01650  -0.01665   2.38909
    Z5       -1.12610   0.00036   0.00000   0.02459   0.02478  -1.10131
    X6       -6.14739   0.00037   0.00000   0.04733   0.04731  -6.10009
    Y6       -1.15772   0.00086   0.00000  -0.02224  -0.02233  -1.18005
    Z6        0.66326  -0.00052   0.00000  -0.02428  -0.02404   0.63922
    X7       -2.98675   0.00021   0.00000   0.01011   0.00999  -2.97676
    Y7        4.52127  -0.00009   0.00000  -0.00264  -0.00263   4.51864
    Z7        1.31507   0.00016   0.00000   0.00602   0.00586   1.32092
    X8       -5.65454  -0.00007   0.00000  -0.00730  -0.00718  -5.66172
    Y8        2.73209   0.00006   0.00000   0.00374   0.00375   2.73585
    Z8        3.84434  -0.00039   0.00000  -0.00882  -0.00872   3.83563
    X9       -0.95962  -0.00006   0.00000   0.02394   0.02420  -0.93541
    Y9        2.28019  -0.00042   0.00000   0.01680   0.01699   2.29718
    Z9        5.42356  -0.00051   0.00000  -0.01967  -0.01993   5.40363
   X10       -2.41608   0.00028   0.00000  -0.02457  -0.02430  -2.44039
   Y10       -1.29437   0.00084   0.00000   0.01755   0.01766  -1.27671
   Z10        4.24206  -0.00005   0.00000   0.04901   0.04897   4.29103
   X11       -3.34160  -0.00060   0.00000   0.00002  -0.00024  -3.34184
   Y11        0.38092   0.00027   0.00000   0.05411   0.05403   0.43495
   Z11       -1.79770   0.00040   0.00000  -0.02637  -0.02639  -1.82410
         Item               Value     Threshold  Converged?
 Maximum Force            0.000856     0.000450     NO 
 RMS     Force            0.000400     0.000300     NO 
 Maximum Displacement     0.054028     0.001800     NO 
 RMS     Displacement     0.022434     0.001200     NO 
 Predicted change in Energy=-2.307707D-05
 GradGradGradGradGradGradGradGradGradGradGradGradGradGradGradGradGradGrad

 1\1\GINC-MU01\Force\RHF\6-31G(d)\C3F8\LBL8\15-Sep-2025\0\\# hf/6-31G(d
 ) force\\Force calculation\\0,1\C,-2.67716106,0.49566569,-0.05084976\C
 ,-2.04182913,1.22903981,1.13450331\C,-0.89027784,0.50009129,1.83406502
 \F,0.12662605,0.35569615,1.01831814\F,-3.58146222,1.27306397,-0.595904
 59\F,-3.25306111,-0.61263999,0.35098465\F,-1.58051816,2.39255176,0.695
 90287\F,-2.99225338,1.44576117,2.03433859\F,-0.50780701,1.2066266,2.87
 002323\F,-1.27853643,-0.68495184,2.24480126\F,-1.76829922,0.20157396,-
 0.95130339\\Version=ES64L-G16RevA.03\State=1-A\HF=-909.1254553\RMSD=5.
 174e-09\RMSF=4.001e-04\Dipole=0.0171779,-0.0441803,-0.0173104\Quadrupo
 le=0.0319197,-0.0943796,0.0624599,-0.0136198,0.1694114,0.0105483\PG=C0
 1 [X(C3F8)]\\@


 OLD HORSE! OLD HORSE! WHAT BROUGHT YOU HERE?
 FROM SACARAP' TO PORTLAND PIER
 I'VE CARTED STONE THIS MANY A YEAR;
 TILL, KILLED BY BLOWS AND SORE ABUSE,
 THEY SALTED ME DOWN FOR SAILORS' USE.
 THE SAILORS THEY DO ME DESPISE;
 THEY TURN ME OVER AND DAMN MY EYES;
 CUT OFF MY MEAT, AND SCRAPE MY BONES,
 AND PITCH ME OVER TO DAVY JONES.

    SAILORS' COMPLAINT ABOUT THE BEEF
    SERVED ON SHIPBOARD, CIRCA 1835.
 Job cpu time:       0 days  0 hours  0 minutes  7.6 seconds.
 Elapsed time:       0 days  0 hours  0 minutes  7.6 seconds.
 File lengths (MBytes):  RWF=     28 Int=      0 D2E=      0 Chk=      4 Scr=      2
 Normal termination of Gaussian 16 at Mon Sep 15 21:55:20 2025.
