 Entering Gaussian System, Link 0=g16
 Input=gauss.gjf
 Output=gauss.log
 Initial command:
 /software/Applications/gaussian/G16.A03.AVX/g16/l1.exe "/home/lbl8/code/hartree-fock_geomopt-rev-3/example/Gau-3228518.inp" -scrdir="/home/lbl8/code/hartree-fock_geomopt-rev-3/example/"
 Entering Link 1 = /software/Applications/gaussian/G16.A03.AVX/g16/l1.exe PID=   3228520.
  
 Copyright (c) 1988,1990,1992,1993,1995,1998,2003,2009,2016,
            Gaussian, Inc.  All Rights Reserved.
  
 This is part of the Gaussian(R) 16 program.  It is based on
 the Gaussian(R) 09 system (copyright 2009, Gaussian, Inc.),
 the Gaussian(R) 03 system (copyright 2003, Gaussian, Inc.),
 the Gaussian(R) 98 system (copyright 1998, Gaussian, Inc.),
 the Gaussian(R) 94 system (copyright 1995, Gaussian, Inc.),
 the Gaussian 92(TM) system (copyright 1992, Gaussian, Inc.),
 the Gaussian 90(TM) system (copyright 1990, Gaussian, Inc.),
 the Gaussian 88(TM) system (copyright 1988, Gaussian, Inc.),
 the Gaussian 86(TM) system (copyright 1986, Carnegie Mellon
 University), and the Gaussian 82(TM) system (copyright 1983,
 Carnegie Mellon University). Gaussian is a federally registered
 trademark of Gaussian, Inc.
  
 This software contains proprietary and confidential information,
 including trade secrets, belonging to Gaussian, Inc.
  
 This software is provided under written license and may be
 used, copied, transmitted, or stored only in accord with that
 written license.
  
 The following legend is applicable only to US Government
 contracts under FAR:
  
                    RESTRICTED RIGHTS LEGEND
  
 Use, reproduction and disclosure by the US Government is
 subject to restrictions as set forth in subparagraphs (a)
 and (c) of the Commercial Computer Software - Restricted
 Rights clause in FAR 52.227-19.
  
 Gaussian, Inc.
 340 Quinnipiac St., Bldg. 40, Wallingford CT 06492
  
  
 ---------------------------------------------------------------
 Warning -- This program may not be used in any manner that
 competes with the business of Gaussian, Inc. or will provide
 assistance to any competitor of Gaussian, Inc.  The licensee
 of this program is prohibited from giving any competitor of
 Gaussian, Inc. access to this program.  By using this program,
 the user acknowledges that Gaussian, Inc. is engaged in the
 business of creating and licensing software in the field of
 computational chemistry and represents and warrants to the
 licensee that it is not a competitor of Gaussian, Inc. and that
 it will not use this program in any manner prohibited above.
 ---------------------------------------------------------------
  

 Cite this work as:
 Gaussian 16, Revision A.03,
 M. J. Frisch, G. W. Trucks, H. B. Schlegel, G. E. Scuseria, 
 M. A. Robb, J. R. Cheeseman, G. Scalmani, V. Barone, 
 G. A. Petersson, H. Nakatsuji, X. Li, M. Caricato, A. V. Marenich, 
 J. Bloino, B. G. Janesko, R. Gomperts, B. Mennucci, H. P. Hratchian, 
 J. V. Ortiz, A. F. Izmaylov, J. L. Sonnenberg, D. Williams-Young, 
 F. Ding, F. Lipparini, F. Egidi, J. Goings, B. Peng, A. Petrone, 
 T. Henderson, D. Ranasinghe, V. G. Zakrzewski, J. Gao, N. Rega, 
 G. Zheng, W. Liang, M. Hada, M. Ehara, K. Toyota, R. Fukuda, 
 J. Hasegawa, M. Ishida, T. Nakajima, Y. Honda, O. Kitao, H. Nakai, 
 T. Vreven, K. Throssell, J. A. Montgomery, Jr., J. E. Peralta, 
 F. Ogliaro, M. J. Bearpark, J. J. Heyd, E. N. Brothers, K. N. Kudin, 
 V. N. Staroverov, T. A. Keith, R. Kobayashi, J. Normand, 
 K. Raghavachari, A. P. Rendell, J. C. Burant, S. S. Iyengar, 
 J. Tomasi, M. Cossi, J. M. Millam, M. Klene, C. Adamo, R. Cammi, 
 J. W. Ochterski, R. L. Martin, K. Morokuma, O. Farkas, 
 J. B. Foresman, and D. J. Fox, Gaussian, Inc., Wallingford CT, 2016.
 
 ******************************************
 Gaussian 16:  ES64L-G16RevA.03 25-Dec-2016
                15-Sep-2025 
 ******************************************
 %chk=gauss.chk
 -------------------
 # hf/6-31G(d) force
 -------------------
 1/10=7,30=1,38=1/1,3;
 2/12=2,17=6,18=5,40=1/2;
 3/5=1,6=6,7=1,11=9,25=1,30=1,71=1/1,2,3;
 4//1;
 5/5=2,38=5/2;
 6/7=2,8=2,9=2,10=2,28=1/1;
 7/29=1/1,2,3,16;
 1/10=7,30=1/3;
 99//99;
 -----------------
 Force calculation
 -----------------
 Symbolic Z-matrix:
 Charge =  0 Multiplicity = 1
 C                    -2.70784   0.46959  -0.03094 
 C                    -2.12174   1.17411   1.23307 
 C                    -0.80424   0.58011   1.74056 
 F                     0.13027   0.71847   0.83007 
 F                    -2.94993   1.35303  -0.96859 
 F                    -3.82635  -0.1437    0.26996 
 F                    -1.90192   2.45034   0.95661 
 F                    -3.00257   1.0989    2.21703 
 F                    -0.42793   1.21016   2.82593 
 F                    -0.96536  -0.6888    2.02251 
 F                    -1.86697  -0.41975  -0.51133 
 

 GradGradGradGradGradGradGradGradGradGradGradGradGradGradGradGradGradGrad
 Berny optimization.
 Initialization pass.
 Trust Radius=3.00D-01 FncErr=1.00D-07 GrdErr=1.00D-07 EigMax=2.50D+02 EigMin=1.00D-04
 Number of steps in this run=      2 maximum allowed number of steps=      2.
 GradGradGradGradGradGradGradGradGradGradGradGradGradGradGradGradGradGrad

                          Input orientation:                          
 ---------------------------------------------------------------------
 Center     Atomic      Atomic             Coordinates (Angstroms)
 Number     Number       Type             X           Y           Z
 ---------------------------------------------------------------------
      1          6           0       -2.707842    0.469591   -0.030942
      2          6           0       -2.121744    1.174115    1.233066
      3          6           0       -0.804236    0.580111    1.740564
      4          9           0        0.130269    0.718475    0.830068
      5          9           0       -2.949930    1.353031   -0.968591
      6          9           0       -3.826347   -0.143697    0.269959
      7          9           0       -1.901918    2.450341    0.956611
      8          9           0       -3.002568    1.098899    2.217032
      9          9           0       -0.427929    1.210160    2.825931
     10          9           0       -0.965360   -0.688799    2.022509
     11          9           0       -1.866974   -0.419748   -0.511329
 ---------------------------------------------------------------------
                    Distance matrix (angstroms):
                    1          2          3          4          5
     1  C    0.000000
     2  C    1.561275   0.000000
     3  C    2.602722   1.531738   0.000000
     4  F    2.976265   2.332720   1.312039   0.000000
     5  F    1.310824   2.359067   3.541317   3.622908   0.000000
     6  F    1.310617   2.360058   3.437984   4.088016   2.131269
     7  F    2.355450   1.324200   2.305915   2.673043   2.451290
     8  F    2.352929   1.322760   2.308425   3.447181   3.196176
     9  F    3.729365   2.325409   1.310187   2.129979   4.558432
    10  F    2.931684   2.330427   1.309804   2.145399   4.129681
    11  F    1.314821   2.376599   2.683310   2.661555   2.127117
                    6          7          8          9         10
     6  F    0.000000
     7  F    3.302113   0.000000
     8  F    2.452295   2.150926   0.000000
     9  F    4.462641   2.684222   2.648000   0.000000
    10  F    3.399090   3.444921   2.717337   2.130813   0.000000
    11  F    2.127383   3.223892   3.322622   3.983059   2.702893
                   11
    11  F    0.000000
 Stoichiometry    C3F8
 Framework group  C1[X(C3F8)]
 Deg. of freedom    27
 Full point group                 C1      NOp   1
 Largest Abelian subgroup         C1      NOp   1
 Largest concise Abelian subgroup C1      NOp   1
                         Standard orientation:                         
 ---------------------------------------------------------------------
 Center     Atomic      Atomic             Coordinates (Angstroms)
 Number     Number       Type             X           Y           Z
 ---------------------------------------------------------------------
      1          6           0       -1.311089   -0.210355   -0.000249
      2          6           0        0.021818    0.602625    0.001158
      3          6           0        1.291257   -0.254549    0.001471
      4          9           0        1.349488   -0.970131   -1.096708
      5          9           0       -2.081536    0.187734   -0.983202
      6          9           0       -1.948299   -0.037584    1.131931
      7          9           0        0.062415    1.372549   -1.075445
      8          9           0        0.056505    1.373559    1.075473
      9          9           0        2.345283    0.522050    0.051594
     10          9           0        1.297341   -1.043759    1.046793
     11          9           0       -1.082520   -1.496231   -0.152023
 ---------------------------------------------------------------------
 Rotational constants (GHZ):           1.7125788           0.9730867           0.9141705
 Standard basis: 6-31G(d) (6D, 7F)
 There are   165 symmetry adapted cartesian basis functions of A   symmetry.
 There are   165 symmetry adapted basis functions of A   symmetry.
   165 basis functions,   308 primitive gaussians,   165 cartesian basis functions
    45 alpha electrons       45 beta electrons
       nuclear repulsion energy       806.0073411814 Hartrees.
 NAtoms=   11 NActive=   11 NUniq=   11 SFac= 1.00D+00 NAtFMM=   60 NAOKFM=F Big=F
 Integral buffers will be    131072 words long.
 Raffenetti 1 integral format.
 Two-electron integral symmetry is turned on.
 One-electron integrals computed using PRISM.
 NBasis=   165 RedAO= T EigKep=  8.49D-04  NBF=   165
 NBsUse=   165 1.00D-06 EigRej= -1.00D+00 NBFU=   165
 ExpMin= 1.69D-01 ExpMax= 7.00D+03 ExpMxC= 1.05D+03 IAcc=3 IRadAn=         5 AccDes= 0.00D+00
 Harris functional with IExCor=  205 and IRadAn=       5 diagonalized for initial guess.
 HarFok:  IExCor=  205 AccDes= 0.00D+00 IRadAn=         5 IDoV= 1 UseB2=F ITyADJ=14
 ICtDFT=  3500011 ScaDFX=  1.000000  1.000000  1.000000  1.000000
 FoFCou: FMM=F IPFlag=           0 FMFlag=      100000 FMFlg1=           0
         NFxFlg=           0 DoJE=T BraDBF=F KetDBF=T FulRan=T
         wScrn=  0.000000 ICntrl=       500 IOpCl=  0 I1Cent=   200000004 NGrid=           0
         NMat0=    1 NMatS0=      1 NMatT0=    0 NMatD0=    1 NMtDS0=    0 NMtDT0=    0
 Petite list used in FoFCou.
 Keep R1 ints in memory in canonical form, NReq=96071382.
 Requested convergence on RMS density matrix=1.00D-08 within 128 cycles.
 Requested convergence on MAX density matrix=1.00D-06.
 Requested convergence on             energy=1.00D-06.
 No special actions if energy rises.
 SCF Done:  E(RHF) =  -909.120105497     A.U. after   11 cycles
            NFock= 11  Conv=0.53D-08     -V/T= 2.0019

 **********************************************************************

            Population analysis using the SCF density.

 **********************************************************************

 Orbital symmetries:
       Occupied  (A) (A) (A) (A) (A) (A) (A) (A) (A) (A) (A) (A)
                 (A) (A) (A) (A) (A) (A) (A) (A) (A) (A) (A) (A)
                 (A) (A) (A) (A) (A) (A) (A) (A) (A) (A) (A) (A)
                 (A) (A) (A) (A) (A) (A) (A) (A) (A)
       Virtual   (A) (A) (A) (A) (A) (A) (A) (A) (A) (A) (A) (A)
                 (A) (A) (A) (A) (A) (A) (A) (A) (A) (A) (A) (A)
                 (A) (A) (A) (A) (A) (A) (A) (A) (A) (A) (A) (A)
                 (A) (A) (A) (A) (A) (A) (A) (A) (A) (A) (A) (A)
                 (A) (A) (A) (A) (A) (A) (A) (A) (A) (A) (A) (A)
                 (A) (A) (A) (A) (A) (A) (A) (A) (A) (A) (A) (A)
                 (A) (A) (A) (A) (A) (A) (A) (A) (A) (A) (A) (A)
                 (A) (A) (A) (A) (A) (A) (A) (A) (A) (A) (A) (A)
                 (A) (A) (A) (A) (A) (A) (A) (A) (A) (A) (A) (A)
                 (A) (A) (A) (A) (A) (A) (A) (A) (A) (A) (A) (A)
 The electronic state is 1-A.
 Alpha  occ. eigenvalues --  -26.37924 -26.37888 -26.37721 -26.37595 -26.37590
 Alpha  occ. eigenvalues --  -26.37573 -26.37363 -26.37313 -11.54940 -11.54522
 Alpha  occ. eigenvalues --  -11.48073  -1.78897  -1.77797  -1.73286  -1.68318
 Alpha  occ. eigenvalues --   -1.67764  -1.67645  -1.67327  -1.66067  -1.12056
 Alpha  occ. eigenvalues --   -1.02428  -0.95546  -0.90910  -0.88896  -0.87615
 Alpha  occ. eigenvalues --   -0.86557  -0.85710  -0.85329  -0.81421  -0.76311
 Alpha  occ. eigenvalues --   -0.75292  -0.74811  -0.74092  -0.73864  -0.72775
 Alpha  occ. eigenvalues --   -0.71423  -0.70185  -0.70136  -0.68402  -0.68144
 Alpha  occ. eigenvalues --   -0.68045  -0.67163  -0.67041  -0.63182  -0.55917
 Alpha virt. eigenvalues --    0.24406   0.25079   0.35698   0.39827   0.42235
 Alpha virt. eigenvalues --    0.44588   0.46604   0.51104   0.52083   0.56213
 Alpha virt. eigenvalues --    0.64589   0.64974   0.68383   0.68894   0.71552
 Alpha virt. eigenvalues --    0.76568   0.77367   0.85917   0.87313   0.90993
 Alpha virt. eigenvalues --    1.03942   1.14284   1.20651   1.24026   1.25118
 Alpha virt. eigenvalues --    1.31551   1.33177   1.34299   1.34665   1.36014
 Alpha virt. eigenvalues --    1.40159   1.48004   1.51476   1.52493   1.53064
 Alpha virt. eigenvalues --    1.56479   1.56877   1.59489   1.61076   1.61536
 Alpha virt. eigenvalues --    1.63021   1.63438   1.64684   1.65245   1.66548
 Alpha virt. eigenvalues --    1.67476   1.68825   1.71175   1.73666   1.78620
 Alpha virt. eigenvalues --    1.79549   1.80961   1.84678   1.88892   1.93267
 Alpha virt. eigenvalues --    1.96695   1.97336   1.98541   2.02799   2.05824
 Alpha virt. eigenvalues --    2.05945   2.07587   2.08377   2.09355   2.10578
 Alpha virt. eigenvalues --    2.13271   2.14412   2.18161   2.21214   2.26793
 Alpha virt. eigenvalues --    2.27757   2.30163   2.30883   2.32591   2.32936
 Alpha virt. eigenvalues --    2.37811   2.38367   2.38708   2.39177   2.40640
 Alpha virt. eigenvalues --    2.40949   2.44567   2.46282   2.51054   2.51447
 Alpha virt. eigenvalues --    2.56563   2.65598   2.70957   2.75565   2.78524
 Alpha virt. eigenvalues --    2.86548   2.91412   2.97609   2.98036   3.03498
 Alpha virt. eigenvalues --    3.09231   3.14598   3.16716   3.27257   3.28741
 Alpha virt. eigenvalues --    3.31776   3.36755   3.40247   3.41127   3.42745
 Alpha virt. eigenvalues --    3.45137   3.49994   3.50831   3.53021   4.45564
 Alpha virt. eigenvalues --    4.52188   4.72572   4.81050   5.09278   5.26904
 Alpha virt. eigenvalues --    5.49775   5.55719   6.15227   6.23794   7.42200
          Condensed to atoms (all electrons):
               1          2          3          4          5          6
     1  C    3.764250   0.366001  -0.069282   0.006246   0.289591   0.290444
     2  C    0.366001   4.437603   0.384832  -0.039367  -0.027327  -0.030145
     3  C   -0.069282   0.384832   3.761091   0.276826   0.001094   0.000935
     4  F    0.006246  -0.039367   0.276826   9.165682  -0.000046   0.000001
     5  F    0.289591  -0.027327   0.001094  -0.000046   9.145182  -0.034831
     6  F    0.290444  -0.030145   0.000935   0.000001  -0.034831   9.145063
     7  F   -0.017074   0.216075  -0.019958   0.001170  -0.000861   0.000287
     8  F   -0.017455   0.216945  -0.019790   0.000369   0.000221  -0.000605
     9  F    0.001432  -0.025756   0.297292  -0.034639  -0.000001  -0.000001
    10  F    0.009402  -0.041831   0.277470  -0.030550   0.000001  -0.000117
    11  F    0.286200  -0.036733   0.012484  -0.001187  -0.035638  -0.035676
               7          8          9         10         11
     1  C   -0.017074  -0.017455   0.001432   0.009402   0.286200
     2  C    0.216075   0.216945  -0.025756  -0.041831  -0.036733
     3  C   -0.019958  -0.019790   0.297292   0.277470   0.012484
     4  F    0.001170   0.000369  -0.034639  -0.030550  -0.001187
     5  F   -0.000861   0.000221  -0.000001   0.000001  -0.035638
     6  F    0.000287  -0.000605  -0.000001  -0.000117  -0.035676
     7  F    9.209935  -0.029707   0.000555   0.000378   0.000307
     8  F   -0.029707   9.207706   0.000612   0.001088   0.000332
     9  F    0.000555   0.000612   9.137315  -0.034299  -0.000000
    10  F    0.000378   0.001088  -0.034299   9.162713  -0.001404
    11  F    0.000307   0.000332  -0.000000  -0.001404   9.154831
 Mulliken charges:
               1
     1  C    1.090245
     2  C    0.579702
     3  C    1.097005
     4  F   -0.344507
     5  F   -0.337385
     6  F   -0.335356
     7  F   -0.361107
     8  F   -0.359717
     9  F   -0.342510
    10  F   -0.342852
    11  F   -0.343517
 Sum of Mulliken charges =  -0.00000
 Mulliken charges with hydrogens summed into heavy atoms:
               1
     1  C    1.090245
     2  C    0.579702
     3  C    1.097005
     4  F   -0.344507
     5  F   -0.337385
     6  F   -0.335356
     7  F   -0.361107
     8  F   -0.359717
     9  F   -0.342510
    10  F   -0.342852
    11  F   -0.343517
 Electronic spatial extent (au):  <R**2>=           1288.3589
 Charge=              0.0000 electrons
 Dipole moment (field-independent basis, Debye):
    X=             -0.0322    Y=             -0.0695    Z=              0.0180  Tot=              0.0787
 Quadrupole moment (field-independent basis, Debye-Ang):
   XX=            -56.9831   YY=            -57.2290   ZZ=            -57.2771
   XY=             -0.2207   XZ=              0.0251   YZ=              0.0025
 Traceless Quadrupole moment (field-independent basis, Debye-Ang):
   XX=              0.1800   YY=             -0.0660   ZZ=             -0.1140
   XY=             -0.2207   XZ=              0.0251   YZ=              0.0025
 Octapole moment (field-independent basis, Debye-Ang**2):
  XXX=             -0.0568  YYY=             -0.3946  ZZZ=             -0.2496  XYY=             -0.7783
  XXY=             -1.4526  XXZ=              0.1062  XZZ=              1.0054  YZZ=             -1.2582
  YYZ=              0.2115  XYZ=             -0.2511
 Hexadecapole moment (field-independent basis, Debye-Ang**3):
 XXXX=           -674.3940 YYYY=           -287.7572 ZZZZ=           -227.3639 XXXY=             -1.7831
 XXXZ=             -0.5505 YYYX=             -1.2575 YYYZ=             -0.1374 ZZZX=              0.7480
 ZZZY=              0.0607 XXYY=           -157.2065 XXZZ=           -153.8351 YYZZ=            -88.1421
 XXYZ=              0.2775 YYXZ=             -0.3942 ZZXY=              2.2458
 N-N= 8.060073411814D+02 E-N=-3.778492267866D+03  KE= 9.074145136142D+02
 Calling FoFJK, ICntrl=      2127 FMM=F ISym2X=0 I1Cent= 0 IOpClX= 0 NMat=1 NMatS=1 NMatT=0.
 ***** Axes restored to original set *****
 -------------------------------------------------------------------
 Center     Atomic                   Forces (Hartrees/Bohr)
 Number     Number              X              Y              Z
 -------------------------------------------------------------------
      1        6          -0.001456394    0.001223688   -0.000268652
      2        6           0.000986440   -0.000649710   -0.001910143
      3        6          -0.000563845    0.002306575   -0.001633658
      4        9           0.000756982   -0.001190629    0.000608396
      5        9          -0.000263913   -0.000818887    0.001780251
      6        9           0.001560766    0.000675506    0.000092249
      7        9           0.000314166    0.000271524   -0.000755107
      8        9          -0.001401688   -0.000219986    0.000982701
      9        9          -0.001029649    0.000641968    0.000307137
     10        9           0.001012573   -0.002858275    0.000485787
     11        9           0.000084561    0.000618225    0.000311039
 -------------------------------------------------------------------
 Cartesian Forces:  Max     0.002858275 RMS     0.001120306

 GradGradGradGradGradGradGradGradGradGradGradGradGradGradGradGradGradGrad
 Berny optimization.
 Search for a local minimum.
 Step number   1 out of a maximum of    2
 All quantities printed in internal units (Hartrees-Bohrs-Radians)
 Second derivative matrix not updated -- first step.
 ITU=  0
     Eigenvalues ---    0.00158   0.00281   0.01354   0.03395   0.05283
     Eigenvalues ---    0.05329   0.05368   0.06824   0.08542   0.09223
     Eigenvalues ---    0.12503   0.14459   0.15203   0.15645   0.18221
     Eigenvalues ---    0.21440   0.24631   0.36290   0.64662   1.02269
     Eigenvalues ---    1.20105   1.30720   1.48915   1.61416   1.64535
     Eigenvalues ---    1.67749   1.74100
 Quadratic step=5.231D-01 exceeds max=3.000D-01 adjusted using Lamda=-1.328D-03.
 Angle between NR and scaled steps=   6.92 degrees.
 Angle between quadratic step and forces=  76.61 degrees.
 Linear search not attempted -- first point.
 B after Tr=    -0.000024    0.000715   -0.000010
         Rot=    1.000000   -0.000010   -0.000043   -0.000089 Ang=  -0.01 deg.
 Variable       Old X    -DE/DX   Delta X   Delta X   Delta X     New X
                                 (Linear)    (Quad)   (Total)
    X1       -5.11708  -0.00146   0.00000  -0.00348  -0.00367  -5.12075
    Y1        0.88740   0.00122   0.00000   0.00791   0.00772   0.89512
    Z1       -0.05847  -0.00027   0.00000  -0.00568  -0.00523  -0.06371
    X2       -4.00952   0.00099   0.00000   0.01806   0.01783  -3.99168
    Y2        2.21876  -0.00065   0.00000   0.00857   0.00853   2.22729
    Z2        2.33016  -0.00191   0.00000  -0.02657  -0.02620   2.30396
    X3       -1.51978  -0.00056   0.00000  -0.00821  -0.00814  -1.52793
    Y3        1.09625   0.00231   0.00000  -0.01968  -0.01930   1.07695
    Z3        3.28919  -0.00163   0.00000   0.01322   0.01336   3.30255
    X4        0.24617   0.00076   0.00000   0.03463   0.03452   0.28069
    Y4        1.35772  -0.00119   0.00000  -0.06053  -0.05980   1.29792
    Z4        1.56860   0.00061   0.00000   0.05095   0.05094   1.61954
    X5       -5.57456  -0.00026   0.00000  -0.14820  -0.14883  -5.72339
    Y5        2.55686  -0.00082   0.00000   0.02342   0.02315   2.58001
    Z5       -1.83037   0.00178   0.00000   0.05018   0.05071  -1.77966
    X6       -7.23075   0.00156   0.00000   0.07331   0.07340  -7.15735
    Y6       -0.27155   0.00068   0.00000  -0.09759  -0.09816  -0.36971
    Z6        0.51015   0.00009   0.00000   0.05372   0.05432   0.56447
    X7       -3.59410   0.00031   0.00000   0.06340   0.06270  -3.53140
    Y7        4.63047   0.00027   0.00000  -0.00615  -0.00609   4.62438
    Z7        1.80773  -0.00076   0.00000  -0.06199  -0.06161   1.74612
    X8       -5.67403  -0.00140   0.00000   0.00075   0.00070  -5.67333
    Y8        2.07662  -0.00022   0.00000   0.06311   0.06273   2.13935
    Z8        4.18958   0.00098   0.00000  -0.03413  -0.03362   4.15597
    X9       -0.80867  -0.00103   0.00000  -0.04413  -0.04410  -0.85277
    Y9        2.28687   0.00064   0.00000  -0.00278  -0.00233   2.28454
    Z9        5.34024   0.00031   0.00000   0.01636   0.01647   5.35671
   X10       -1.82427   0.00101   0.00000  -0.02796  -0.02742  -1.85169
   Y10       -1.30164  -0.00286   0.00000  -0.01701  -0.01670  -1.31834
   Z10        3.82199   0.00049   0.00000   0.03347   0.03360   3.85558
   X11       -3.52807   0.00008   0.00000   0.04301   0.04302  -3.48505
   Y11       -0.79321   0.00062   0.00000   0.10014   0.10026  -0.69295
   Z11       -0.96627   0.00031   0.00000  -0.09301  -0.09274  -1.05901
         Item               Value     Threshold  Converged?
 Maximum Force            0.002858     0.000450     NO 
 RMS     Force            0.001120     0.000300     NO 
 Maximum Displacement     0.148833     0.001800     NO 
 RMS     Displacement     0.052253     0.001200     NO 
 Predicted change in Energy=-2.835006D-04
 GradGradGradGradGradGradGradGradGradGradGradGradGradGradGradGradGradGrad

 1\1\GINC-MU01\Force\RHF\6-31G(d)\C3F8\LBL8\15-Sep-2025\0\\# hf/6-31G(d
 ) force\\Force calculation\\0,1\C,-2.70784159,0.46959098,-0.03094162\C
 ,-2.12174445,1.17411463,1.23306649\C,-0.80423552,0.58011149,1.74056356
 \F,0.13026922,0.71847478,0.83006773\F,-2.94993001,1.35303076,-0.968590
 62\F,-3.82634675,-0.1436974,0.26995943\F,-1.90191783,2.45034093,0.9566
 1135\F,-3.00256767,1.0988991,2.2170317\F,-0.42792914,1.21015958,2.8259
 3147\F,-0.96535971,-0.68879894,2.02250875\F,-1.86697365,-0.41974799,-0
 .51132928\\Version=ES64L-G16RevA.03\State=1-A\HF=-909.1201055\RMSD=5.3
 24e-09\RMSF=1.120e-03\Dipole=-0.0000548,-0.0263594,-0.0162194\Quadrupo
 le=0.1351172,-0.0799882,-0.055129,-0.1010949,0.1040111,-0.0783029\PG=C
 01 [X(C3F8)]\\@


 WE DON'T KNOW ONE MILLIONTH OF ONE PERCENT ABOUT
 ANYTHING.
                                     T. A. EDISON.
 Job cpu time:       0 days  0 hours  0 minutes  7.8 seconds.
 Elapsed time:       0 days  0 hours  0 minutes  7.8 seconds.
 File lengths (MBytes):  RWF=     28 Int=      0 D2E=      0 Chk=      4 Scr=      2
 Normal termination of Gaussian 16 at Mon Sep 15 21:51:46 2025.
