 Entering Gaussian System, Link 0=g16
 Input=gauss.gjf
 Output=gauss.log
 Initial command:
 /software/Applications/gaussian/G16.A03.AVX/g16/l1.exe "/home/lbl8/code/hartree-fock_geomopt-rev-3/example/Gau-3214248.inp" -scrdir="/home/lbl8/code/hartree-fock_geomopt-rev-3/example/"
 Entering Link 1 = /software/Applications/gaussian/G16.A03.AVX/g16/l1.exe PID=   3214250.
  
 Copyright (c) 1988,1990,1992,1993,1995,1998,2003,2009,2016,
            Gaussian, Inc.  All Rights Reserved.
  
 This is part of the Gaussian(R) 16 program.  It is based on
 the Gaussian(R) 09 system (copyright 2009, Gaussian, Inc.),
 the Gaussian(R) 03 system (copyright 2003, Gaussian, Inc.),
 the Gaussian(R) 98 system (copyright 1998, Gaussian, Inc.),
 the Gaussian(R) 94 system (copyright 1995, Gaussian, Inc.),
 the Gaussian 92(TM) system (copyright 1992, Gaussian, Inc.),
 the Gaussian 90(TM) system (copyright 1990, Gaussian, Inc.),
 the Gaussian 88(TM) system (copyright 1988, Gaussian, Inc.),
 the Gaussian 86(TM) system (copyright 1986, Carnegie Mellon
 University), and the Gaussian 82(TM) system (copyright 1983,
 Carnegie Mellon University). Gaussian is a federally registered
 trademark of Gaussian, Inc.
  
 This software contains proprietary and confidential information,
 including trade secrets, belonging to Gaussian, Inc.
  
 This software is provided under written license and may be
 used, copied, transmitted, or stored only in accord with that
 written license.
  
 The following legend is applicable only to US Government
 contracts under FAR:
  
                    RESTRICTED RIGHTS LEGEND
  
 Use, reproduction and disclosure by the US Government is
 subject to restrictions as set forth in subparagraphs (a)
 and (c) of the Commercial Computer Software - Restricted
 Rights clause in FAR 52.227-19.
  
 Gaussian, Inc.
 340 Quinnipiac St., Bldg. 40, Wallingford CT 06492
  
  
 ---------------------------------------------------------------
 Warning -- This program may not be used in any manner that
 competes with the business of Gaussian, Inc. or will provide
 assistance to any competitor of Gaussian, Inc.  The licensee
 of this program is prohibited from giving any competitor of
 Gaussian, Inc. access to this program.  By using this program,
 the user acknowledges that Gaussian, Inc. is engaged in the
 business of creating and licensing software in the field of
 computational chemistry and represents and warrants to the
 licensee that it is not a competitor of Gaussian, Inc. and that
 it will not use this program in any manner prohibited above.
 ---------------------------------------------------------------
  

 Cite this work as:
 Gaussian 16, Revision A.03,
 M. J. Frisch, G. W. Trucks, H. B. Schlegel, G. E. Scuseria, 
 M. A. Robb, J. R. Cheeseman, G. Scalmani, V. Barone, 
 G. A. Petersson, H. Nakatsuji, X. Li, M. Caricato, A. V. Marenich, 
 J. Bloino, B. G. Janesko, R. Gomperts, B. Mennucci, H. P. Hratchian, 
 J. V. Ortiz, A. F. Izmaylov, J. L. Sonnenberg, D. Williams-Young, 
 F. Ding, F. Lipparini, F. Egidi, J. Goings, B. Peng, A. Petrone, 
 T. Henderson, D. Ranasinghe, V. G. Zakrzewski, J. Gao, N. Rega, 
 G. Zheng, W. Liang, M. Hada, M. Ehara, K. Toyota, R. Fukuda, 
 J. Hasegawa, M. Ishida, T. Nakajima, Y. Honda, O. Kitao, H. Nakai, 
 T. Vreven, K. Throssell, J. A. Montgomery, Jr., J. E. Peralta, 
 F. Ogliaro, M. J. Bearpark, J. J. Heyd, E. N. Brothers, K. N. Kudin, 
 V. N. Staroverov, T. A. Keith, R. Kobayashi, J. Normand, 
 K. Raghavachari, A. P. Rendell, J. C. Burant, S. S. Iyengar, 
 J. Tomasi, M. Cossi, J. M. Millam, M. Klene, C. Adamo, R. Cammi, 
 J. W. Ochterski, R. L. Martin, K. Morokuma, O. Farkas, 
 J. B. Foresman, and D. J. Fox, Gaussian, Inc., Wallingford CT, 2016.
 
 ******************************************
 Gaussian 16:  ES64L-G16RevA.03 25-Dec-2016
                15-Sep-2025 
 ******************************************
 %chk=gauss.chk
 -------------------
 # hf/6-31G(d) force
 -------------------
 1/10=7,30=1,38=1/1,3;
 2/12=2,17=6,18=5,40=1/2;
 3/5=1,6=6,7=1,11=9,25=1,30=1,71=1/1,2,3;
 4//1;
 5/5=2,38=5/2;
 6/7=2,8=2,9=2,10=2,28=1/1;
 7/29=1/1,2,3,16;
 1/10=7,30=1/3;
 99//99;
 -----------------
 Force calculation
 -----------------
 Symbolic Z-matrix:
 Charge =  0 Multiplicity = 1
 C                    -2.87079   1.88072   0.05448 
 C                    -1.6494    2.28144   0.86032 
 C                    -1.10778   2.96922   3.92315 
 C                    -0.63903   1.88293   2.96477 
 H                    -2.8454    0.82183  -0.17689 
 H                    -2.91079   2.43651  -0.87768 
 H                    -3.77568   2.07795   0.61804 
 H                    -1.67851   3.34738   1.07809 
 H                    -0.73818   2.09555   0.29296 
 H                    -2.0023    2.63927   4.44035 
 H                    -0.34597   3.17907   4.66742 
 H                    -1.33938   3.89325   3.40299 
 H                     0.26724   2.18931   2.44484 
 H                    -0.40354   0.98331   3.52063 
 O                    -1.63306   1.5335    2.04164 
 

 GradGradGradGradGradGradGradGradGradGradGradGradGradGradGradGradGradGrad
 Berny optimization.
 Initialization pass.
 Trust Radius=3.00D-01 FncErr=1.00D-07 GrdErr=1.00D-07 EigMax=2.50D+02 EigMin=1.00D-04
 Number of steps in this run=      2 maximum allowed number of steps=      2.
 GradGradGradGradGradGradGradGradGradGradGradGradGradGradGradGradGradGrad

                          Input orientation:                          
 ---------------------------------------------------------------------
 Center     Atomic      Atomic             Coordinates (Angstroms)
 Number     Number       Type             X           Y           Z
 ---------------------------------------------------------------------
      1          6           0       -2.870788    1.880723    0.054479
      2          6           0       -1.649405    2.281441    0.860317
      3          6           0       -1.107775    2.969222    3.923152
      4          6           0       -0.639032    1.882929    2.964768
      5          1           0       -2.845398    0.821829   -0.176890
      6          1           0       -2.910794    2.436508   -0.877677
      7          1           0       -3.775676    2.077954    0.618036
      8          1           0       -1.678509    3.347377    1.078088
      9          1           0       -0.738180    2.095550    0.292965
     10          1           0       -2.002298    2.639270    4.440351
     11          1           0       -0.345970    3.179073    4.667416
     12          1           0       -1.339380    3.893255    3.402987
     13          1           0        0.267244    2.189312    2.444841
     14          1           0       -0.403540    0.983314    3.520625
     15          8           0       -1.633061    1.533495    2.041636
 ---------------------------------------------------------------------
                    Distance matrix (angstroms):
                    1          2          3          4          5
     1  C    0.000000
     2  C    1.517144   0.000000
     3  C    4.388584   3.185493   0.000000
     4  C    3.667494   2.368201   1.522581   0.000000
     5  H    1.084174   2.153292   4.943781   3.982963   0.000000
     6  H    1.086008   2.153085   5.155834   4.497970   1.761411
     7  H    1.084121   2.149683   4.340029   3.922208   1.753617
     8  H    2.149506   1.088343   2.926283   2.604742   3.052047
     9  H    2.156627   1.089392   3.752088   2.682083   2.506690
    10  H    4.534925   3.615138   1.084682   2.146600   5.033172
    11  H    5.416604   4.122947   1.085502   2.159835   5.938942
    12  H    4.196188   3.026421   1.085380   2.173461   4.951491
    13  H    3.956804   2.488523   2.164334   1.088821   4.293253
    14  H    4.348197   3.211627   2.145182   1.083393   4.434001
    15  O    2.366712   1.398286   2.424323   1.400846   2.626421
                    6          7          8          9         10
     6  H    0.000000
     7  H    1.764579   0.000000
     8  H    2.484598   2.494232   0.000000
     9  H    2.491366   3.054891   1.751487   0.000000
    10  H    5.398880   4.250887   3.451242   4.369719   0.000000
    11  H    6.154493   5.419671   3.832397   4.523680   1.756806
    12  H    4.787018   4.121506   2.412083   3.642172   1.757289
    13  H    4.604363   4.437885   2.644822   2.377024   3.055379
    14  H    5.267177   4.581982   3.630472   3.430284   2.478732
    15  O    3.312163   2.629424   2.054424   2.043176   2.667004
                   11         12         13         14         15
    11  H    0.000000
    12  H    1.759460   0.000000
    13  H    2.509083   2.530356   0.000000
    14  H    2.477862   3.058985   1.749769   0.000000
    15  O    3.355481   2.740071   2.050324   2.000457   0.000000
 Stoichiometry    C4H10O
 Framework group  C1[X(C4H10O)]
 Deg. of freedom    39
 Full point group                 C1      NOp   1
 Largest Abelian subgroup         C1      NOp   1
 Largest concise Abelian subgroup C1      NOp   1
                         Standard orientation:                         
 ---------------------------------------------------------------------
 Center     Atomic      Atomic             Coordinates (Angstroms)
 Number     Number       Type             X           Y           Z
 ---------------------------------------------------------------------
      1          6           0        2.294051    0.281436   -0.202888
      2          6           0        0.989564   -0.007025    0.516019
      3          6           0       -2.075829    0.653829   -0.044340
      4          6           0       -1.250925   -0.621898    0.057196
      5          1           0        2.658413   -0.607724   -0.704951
      6          1           0        3.050922    0.614548    0.501098
      7          1           0        2.149608    1.052260   -0.951410
      8          1           0        0.637757    0.887997    1.025587
      9          1           0        1.132848   -0.773118    1.277167
     10          1           0       -2.099089    0.993073   -1.074344
     11          1           0       -3.097877    0.476307    0.275376
     12          1           0       -1.662009    1.451054    0.564949
     13          1           0       -1.226509   -0.987195    1.082618
     14          1           0       -1.702054   -1.396957   -0.550674
     15          8           0        0.052103   -0.443537   -0.425167
 ---------------------------------------------------------------------
 Rotational constants (GHZ):          13.5045258           2.4821158           2.3718620
 Standard basis: 6-31G(d) (6D, 7F)
 There are    95 symmetry adapted cartesian basis functions of A   symmetry.
 There are    95 symmetry adapted basis functions of A   symmetry.
    95 basis functions,   180 primitive gaussians,    95 cartesian basis functions
    21 alpha electrons       21 beta electrons
       nuclear repulsion energy       192.5409199111 Hartrees.
 NAtoms=   15 NActive=   15 NUniq=   15 SFac= 1.00D+00 NAtFMM=   60 NAOKFM=F Big=F
 Integral buffers will be    131072 words long.
 Raffenetti 1 integral format.
 Two-electron integral symmetry is turned on.
 One-electron integrals computed using PRISM.
 NBasis=    95 RedAO= T EigKep=  4.93D-03  NBF=    95
 NBsUse=    95 1.00D-06 EigRej= -1.00D+00 NBFU=    95
 ExpMin= 1.61D-01 ExpMax= 5.48D+03 ExpMxC= 8.25D+02 IAcc=3 IRadAn=         5 AccDes= 0.00D+00
 Harris functional with IExCor=  205 and IRadAn=       5 diagonalized for initial guess.
 HarFok:  IExCor=  205 AccDes= 0.00D+00 IRadAn=         5 IDoV= 1 UseB2=F ITyADJ=14
 ICtDFT=  3500011 ScaDFX=  1.000000  1.000000  1.000000  1.000000
 FoFCou: FMM=F IPFlag=           0 FMFlag=      100000 FMFlg1=           0
         NFxFlg=           0 DoJE=T BraDBF=F KetDBF=T FulRan=T
         wScrn=  0.000000 ICntrl=       500 IOpCl=  0 I1Cent=   200000004 NGrid=           0
         NMat0=    1 NMatS0=      1 NMatT0=    0 NMatD0=    1 NMtDS0=    0 NMtDT0=    0
 Petite list used in FoFCou.
 Keep R1 ints in memory in canonical form, NReq=11281957.
 Requested convergence on RMS density matrix=1.00D-08 within 128 cycles.
 Requested convergence on MAX density matrix=1.00D-06.
 Requested convergence on             energy=1.00D-06.
 No special actions if energy rises.
 SCF Done:  E(RHF) =  -232.141996435     A.U. after   11 cycles
            NFock= 11  Conv=0.97D-08     -V/T= 2.0009

 **********************************************************************

            Population analysis using the SCF density.

 **********************************************************************

 Orbital symmetries:
       Occupied  (A) (A) (A) (A) (A) (A) (A) (A) (A) (A) (A) (A)
                 (A) (A) (A) (A) (A) (A) (A) (A) (A)
       Virtual   (A) (A) (A) (A) (A) (A) (A) (A) (A) (A) (A) (A)
                 (A) (A) (A) (A) (A) (A) (A) (A) (A) (A) (A) (A)
                 (A) (A) (A) (A) (A) (A) (A) (A) (A) (A) (A) (A)
                 (A) (A) (A) (A) (A) (A) (A) (A) (A) (A) (A) (A)
                 (A) (A) (A) (A) (A) (A) (A) (A) (A) (A) (A) (A)
                 (A) (A) (A) (A) (A) (A) (A) (A) (A) (A) (A) (A)
                 (A) (A)
 The electronic state is 1-A.
 Alpha  occ. eigenvalues --  -20.54947 -11.26829 -11.26815 -11.21016 -11.20874
 Alpha  occ. eigenvalues --   -1.37433  -1.04051  -0.98535  -0.85932  -0.81640
 Alpha  occ. eigenvalues --   -0.67155  -0.65082  -0.63987  -0.57293  -0.55199
 Alpha  occ. eigenvalues --   -0.54262  -0.52329  -0.50069  -0.48883  -0.45834
 Alpha  occ. eigenvalues --   -0.40654
 Alpha virt. eigenvalues --    0.23459   0.26196   0.28055   0.29454   0.31706
 Alpha virt. eigenvalues --    0.32230   0.32495   0.33791   0.34470   0.36069
 Alpha virt. eigenvalues --    0.38349   0.41165   0.43249   0.45855   0.71271
 Alpha virt. eigenvalues --    0.73368   0.75681   0.76313   0.77436   0.78414
 Alpha virt. eigenvalues --    0.84325   0.87573   0.91779   0.94820   0.97390
 Alpha virt. eigenvalues --    1.04769   1.10490   1.12954   1.13805   1.16911
 Alpha virt. eigenvalues --    1.18248   1.19010   1.19798   1.21360   1.23128
 Alpha virt. eigenvalues --    1.25099   1.27097   1.31686   1.39084   1.43186
 Alpha virt. eigenvalues --    1.57476   1.63364   1.70431   1.74310   1.76545
 Alpha virt. eigenvalues --    1.86484   1.97994   2.01820   2.10402   2.18087
 Alpha virt. eigenvalues --    2.23109   2.26845   2.28328   2.32424   2.44812
 Alpha virt. eigenvalues --    2.46769   2.49829   2.55278   2.58686   2.64570
 Alpha virt. eigenvalues --    2.65646   2.68660   2.76590   2.80749   2.86654
 Alpha virt. eigenvalues --    2.99980   3.04493   3.19828   3.34194   4.37890
 Alpha virt. eigenvalues --    4.61408   4.62493   4.82004   4.88628
          Condensed to atoms (all electrons):
               1          2          3          4          5          6
     1  C    5.094125   0.365331  -0.000156   0.005139   0.390341   0.383023
     2  C    0.365331   4.767024  -0.004212  -0.042168  -0.034615  -0.037132
     3  C   -0.000156  -0.004212   5.149956   0.345917   0.000007   0.000006
     4  C    0.005139  -0.042168   0.345917   4.771299  -0.000087  -0.000131
     5  H    0.390341  -0.034615   0.000007  -0.000087   0.522859  -0.025825
     6  H    0.383023  -0.037132   0.000006  -0.000131  -0.025825   0.548088
     7  H    0.390067  -0.035482   0.000024  -0.000279  -0.028058  -0.025035
     8  H   -0.042631   0.395097   0.002606  -0.001548   0.004815  -0.000423
     9  H   -0.041149   0.399769  -0.000292  -0.007785  -0.005112   0.000154
    10  H   -0.000028  -0.000042   0.390204  -0.035498   0.000001   0.000001
    11  H    0.000002   0.000031   0.376522  -0.033912  -0.000000  -0.000000
    12  H   -0.000027   0.000817   0.389678  -0.032734  -0.000002   0.000002
    13  H   -0.000138  -0.009068  -0.052783   0.397243  -0.000002   0.000016
    14  H   -0.000139   0.004978  -0.049856   0.413772  -0.000011   0.000002
    15  O   -0.055727   0.208574  -0.052987   0.207296   0.001554   0.002931
               7          8          9         10         11         12
     1  C    0.390067  -0.042631  -0.041149  -0.000028   0.000002  -0.000027
     2  C   -0.035482   0.395097   0.399769  -0.000042   0.000031   0.000817
     3  C    0.000024   0.002606  -0.000292   0.390204   0.376522   0.389678
     4  C   -0.000279  -0.001548  -0.007785  -0.035498  -0.033912  -0.032734
     5  H   -0.028058   0.004815  -0.005112   0.000001  -0.000000  -0.000002
     6  H   -0.025035  -0.000423   0.000154   0.000001  -0.000000   0.000002
     7  H    0.524936  -0.005249   0.004706   0.000008   0.000001   0.000017
     8  H   -0.005249   0.611044  -0.052771   0.000090  -0.000241  -0.000536
     9  H    0.004706  -0.052771   0.599735   0.000020   0.000037   0.000078
    10  H    0.000008   0.000090   0.000020   0.523885  -0.025913  -0.028100
    11  H    0.000001  -0.000241   0.000037  -0.025913   0.551162  -0.026488
    12  H    0.000017  -0.000536   0.000078  -0.028100  -0.026488   0.536571
    13  H    0.000025  -0.000870   0.006683   0.004636   0.000733  -0.003679
    14  H    0.000007  -0.000324   0.000176  -0.004142  -0.000117   0.003955
    15  O    0.001943  -0.043821  -0.042567   0.000871   0.003221  -0.000302
              13         14         15
     1  C   -0.000138  -0.000139  -0.055727
     2  C   -0.009068   0.004978   0.208574
     3  C   -0.052783  -0.049856  -0.052987
     4  C    0.397243   0.413772   0.207296
     5  H   -0.000002  -0.000011   0.001554
     6  H    0.000016   0.000002   0.002931
     7  H    0.000025   0.000007   0.001943
     8  H   -0.000870  -0.000324  -0.043821
     9  H    0.006683   0.000176  -0.042567
    10  H    0.004636  -0.004142   0.000871
    11  H    0.000733  -0.000117   0.003221
    12  H   -0.003679   0.003955  -0.000302
    13  H    0.592543  -0.034925  -0.037587
    14  H   -0.034925   0.536585  -0.037905
    15  O   -0.037587  -0.037905   8.465151
 Mulliken charges:
               1
     1  C   -0.488032
     2  C    0.021096
     3  C   -0.494635
     4  C    0.013477
     5  H    0.174134
     6  H    0.154323
     7  H    0.172367
     8  H    0.134761
     9  H    0.138318
    10  H    0.174008
    11  H    0.154962
    12  H    0.160750
    13  H    0.137171
    14  H    0.167944
    15  O   -0.620645
 Sum of Mulliken charges =  -0.00000
 Mulliken charges with hydrogens summed into heavy atoms:
               1
     1  C    0.012791
     2  C    0.294176
     3  C   -0.004915
     4  C    0.318592
    15  O   -0.620645
 Electronic spatial extent (au):  <R**2>=            585.9360
 Charge=              0.0000 electrons
 Dipole moment (field-independent basis, Debye):
    X=             -0.3446    Y=              0.2827    Z=              1.2615  Tot=              1.3379
 Quadrupole moment (field-independent basis, Debye-Ang):
   XX=            -30.9593   YY=            -33.3628   ZZ=            -33.6951
   XY=              0.9590   XZ=              0.6548   YZ=             -0.4535
 Traceless Quadrupole moment (field-independent basis, Debye-Ang):
   XX=              1.7131   YY=             -0.6904   ZZ=             -1.0227
   XY=              0.9590   XZ=              0.6548   YZ=             -0.4535
 Octapole moment (field-independent basis, Debye-Ang**2):
  XXX=             -1.0216  YYY=             -2.3120  ZZZ=             -1.4859  XYY=             -0.0832
  XXY=             -2.9480  XXZ=             -0.4671  XZZ=             -0.0308  YZZ=             -0.2196
  YYZ=             -0.5086  XYZ=             -0.0907
 Hexadecapole moment (field-independent basis, Debye-Ang**3):
 XXXX=           -606.4896 YYYY=           -110.0548 ZZZZ=            -81.6756 XXXY=              3.7275
 XXXZ=              1.6922 YYYX=              1.7443 YYYZ=              1.4449 ZZZX=              1.8450
 ZZZY=             -0.6301 XXYY=           -119.9857 XXZZ=           -113.5029 YYZZ=            -30.2037
 XXYZ=              1.9221 YYXZ=              0.1984 ZZXY=              0.5995
 N-N= 1.925409199111D+02 E-N=-9.281214674048D+02  KE= 2.319320328085D+02
 Calling FoFJK, ICntrl=      2127 FMM=F ISym2X=0 I1Cent= 0 IOpClX= 0 NMat=1 NMatS=1 NMatT=0.
 ***** Axes restored to original set *****
 -------------------------------------------------------------------
 Center     Atomic                   Forces (Hartrees/Bohr)
 Number     Number              X              Y              Z
 -------------------------------------------------------------------
      1        6           0.000366168   -0.000243734   -0.000037299
      2        6          -0.000540545    0.000079066    0.000020230
      3        6          -0.000831880   -0.000630818    0.000284965
      4        6          -0.000178979   -0.000071798   -0.000036063
      5        1           0.000693397   -0.000058259    0.000099503
      6        1          -0.000254275   -0.000010351    0.000263068
      7        1          -0.000005934    0.000592261   -0.000138326
      8        1          -0.000493371   -0.000003363   -0.000027157
      9        1          -0.000157523   -0.000187847   -0.000245025
     10        1          -0.000186866    0.000395466   -0.000221146
     11        1           0.000817232    0.000563253   -0.000277231
     12        1           0.000454234   -0.000151711    0.000348092
     13        1          -0.000101187    0.000062714    0.000406552
     14        1          -0.000129918   -0.000184425   -0.000125283
     15        8           0.000549450   -0.000150453   -0.000314878
 -------------------------------------------------------------------
 Cartesian Forces:  Max     0.000831880 RMS     0.000346029

 GradGradGradGradGradGradGradGradGradGradGradGradGradGradGradGradGradGrad
 Berny optimization.
 Search for a local minimum.
 Step number   1 out of a maximum of    2
 All quantities printed in internal units (Hartrees-Bohrs-Radians)
 Second derivative matrix not updated -- first step.
 ITU=  0
     Eigenvalues ---    0.00158   0.00266   0.00348   0.00682   0.01130
     Eigenvalues ---    0.02090   0.03296   0.04232   0.04750   0.05166
     Eigenvalues ---    0.05270   0.05998   0.07422   0.07673   0.09137
     Eigenvalues ---    0.09809   0.12457   0.13219   0.13513   0.13816
     Eigenvalues ---    0.14324   0.15367   0.16281   0.19883   0.22262
     Eigenvalues ---    0.30007   0.32097   0.53043   0.58076   0.77432
     Eigenvalues ---    0.79663   0.85724   0.88499   0.97047   0.99796
     Eigenvalues ---    1.02908   1.04090   1.14261   1.32000
 Angle between quadratic step and forces=  75.47 degrees.
 Linear search not attempted -- first point.
 B after Tr=    -0.005564   -0.002277    0.000546
         Rot=    1.000000    0.000064   -0.000057    0.000357 Ang=   0.04 deg.
 Variable       Old X    -DE/DX   Delta X   Delta X   Delta X     New X
                                 (Linear)    (Quad)   (Total)
    X1       -5.42500   0.00037   0.00000   0.01041   0.00738  -5.41762
    Y1        3.55405  -0.00024   0.00000  -0.01712  -0.01553   3.53852
    Z1        0.10295  -0.00004   0.00000  -0.01548  -0.01477   0.08818
    X2       -3.11692  -0.00054   0.00000  -0.02579  -0.02808  -3.14500
    Y2        4.31130   0.00008   0.00000   0.02619   0.02636   4.33766
    Z2        1.62576   0.00002   0.00000   0.01284   0.01319   1.63895
    X3       -2.09339  -0.00083   0.00000   0.02436   0.02365  -2.06975
    Y3        5.61102  -0.00063   0.00000   0.00503   0.00518   5.61620
    Z3        7.41368   0.00028   0.00000   0.00037   0.00043   7.41411
    X4       -1.20760  -0.00018   0.00000  -0.01252  -0.01492  -1.22252
    Y4        3.55822  -0.00007   0.00000  -0.01674  -0.01742   3.54080
    Z4        5.60260  -0.00004   0.00000   0.00630   0.00653   5.60913
    X5       -5.37702   0.00069   0.00000   0.06998   0.06547  -5.31155
    Y5        1.55303  -0.00006   0.00000  -0.01446  -0.01300   1.54003
    Z5       -0.33427   0.00010   0.00000  -0.02181  -0.02086  -0.35514
    X6       -5.50060  -0.00025   0.00000   0.00424   0.00176  -5.49884
    Y6        4.60433  -0.00001   0.00000  -0.01108  -0.00965   4.59468
    Z6       -1.65857   0.00026   0.00000  -0.01087  -0.01030  -1.66887
    X7       -7.13499  -0.00001   0.00000  -0.01023  -0.01290  -7.14789
    Y7        3.92676   0.00059   0.00000  -0.05652  -0.05355   3.87321
    Z7        1.16792  -0.00014   0.00000  -0.03461  -0.03375   1.13417
    X8       -3.17192  -0.00049   0.00000  -0.07950  -0.08030  -3.25222
    Y8        6.32563  -0.00000   0.00000   0.02166   0.02197   6.34759
    Z8        2.03729  -0.00003   0.00000   0.02789   0.02798   2.06527
    X9       -1.39496  -0.00016   0.00000  -0.01115  -0.01377  -1.40873
    Y9        3.96002  -0.00019   0.00000   0.07148   0.07028   4.03029
    Z9        0.55362  -0.00025   0.00000   0.02137   0.02155   0.57517
   X10       -3.78380  -0.00019   0.00000   0.01075   0.00973  -3.77406
   Y10        4.98750   0.00040   0.00000   0.05044   0.05193   5.03943
   Z10        8.39105  -0.00022   0.00000   0.00537   0.00569   8.39674
   X11       -0.65379   0.00082   0.00000   0.04162   0.04134  -0.61245
   Y11        6.00758   0.00056   0.00000  -0.01140  -0.01211   5.99547
   Z11        8.82014  -0.00028   0.00000  -0.01064  -0.01079   8.80934
   X12       -2.53106   0.00045   0.00000   0.06479   0.06521  -2.46585
   Y12        7.35719  -0.00015   0.00000   0.00989   0.01020   7.36738
   Z12        6.43071   0.00035   0.00000  -0.00668  -0.00681   6.42391
   X13        0.50502  -0.00010   0.00000  -0.00015  -0.00226   0.50275
   Y13        4.13720   0.00006   0.00000  -0.04329  -0.04533   4.09187
   Z13        4.62008   0.00041   0.00000   0.01380   0.01376   4.63384
   X14       -0.76258  -0.00013   0.00000  -0.04159  -0.04509  -0.80767
   Y14        1.85819  -0.00018   0.00000  -0.02367  -0.02451   1.83368
   Z14        6.65302  -0.00013   0.00000   0.00774   0.00814   6.66116
   X15       -3.08604   0.00055   0.00000  -0.01417  -0.01722  -3.10326
   Y15        2.89789  -0.00015   0.00000   0.00475   0.00518   2.90307
   Z15        3.85813  -0.00031   0.00000  -0.00051   0.00002   3.85815
         Item               Value     Threshold  Converged?
 Maximum Force            0.000832     0.000450     NO 
 RMS     Force            0.000346     0.000300     NO 
 Maximum Displacement     0.080301     0.001800     NO 
 RMS     Displacement     0.029952     0.001200     NO 
 Predicted change in Energy=-5.860334D-05
 GradGradGradGradGradGradGradGradGradGradGradGradGradGradGradGradGradGrad

 1\1\GINC-MU01\Force\RHF\6-31G(d)\C4H10O1\LBL8\15-Sep-2025\0\\# hf/6-31
 G(d) force\\Force calculation\\0,1\C,-2.87078754,1.88072339,0.05447932
 \C,-1.64940482,2.28144099,0.86031724\C,-1.10777542,2.96922222,3.923152
 27\C,-0.63903229,1.88292885,2.96476771\H,-2.84539791,0.82182906,-0.176
 88951\H,-2.91079436,2.43650779,-0.87767723\H,-3.77567595,2.07795354,0.
 61803575\H,-1.67850927,3.34737728,1.07808765\H,-0.73818026,2.09555043,
 0.2929646\H,-2.00229824,2.63926985,4.44035145\H,-0.34597018,3.1790729,
 4.6674164\H,-1.33937967,3.89325487,3.40298659\H,0.26724376,2.18931207,
 2.44484135\H,-0.40354038,0.98331424,3.52062518\O,-1.63306128,1.5334954
 8,2.04163608\\Version=ES64L-G16RevA.03\State=1-A\HF=-232.1419964\RMSD=
 9.662e-09\RMSF=3.460e-04\Dipole=0.3318162,0.4007641,-0.0797867\Quadrup
 ole=0.0478444,-1.1387971,1.0909527,-0.3939929,0.761537,-0.3333522\PG=C
 01 [X(C4H10O1)]\\@


 The hours that make us happy make us wise.
                         -- John Masefield
 Job cpu time:       0 days  0 hours  0 minutes  2.4 seconds.
 Elapsed time:       0 days  0 hours  0 minutes  2.4 seconds.
 File lengths (MBytes):  RWF=     22 Int=      0 D2E=      0 Chk=      3 Scr=      2
 Normal termination of Gaussian 16 at Mon Sep 15 21:32:28 2025.
