 Entering Gaussian System, Link 0=g16
 Input=gauss.gjf
 Output=gauss.log
 Initial command:
 /software/Applications/gaussian/G16.A03.AVX/g16/l1.exe "/home/lbl8/code/hartree-fock_geomopt-rev-3/example/Gau-3214621.inp" -scrdir="/home/lbl8/code/hartree-fock_geomopt-rev-3/example/"
 Entering Link 1 = /software/Applications/gaussian/G16.A03.AVX/g16/l1.exe PID=   3214623.
  
 Copyright (c) 1988,1990,1992,1993,1995,1998,2003,2009,2016,
            Gaussian, Inc.  All Rights Reserved.
  
 This is part of the Gaussian(R) 16 program.  It is based on
 the Gaussian(R) 09 system (copyright 2009, Gaussian, Inc.),
 the Gaussian(R) 03 system (copyright 2003, Gaussian, Inc.),
 the Gaussian(R) 98 system (copyright 1998, Gaussian, Inc.),
 the Gaussian(R) 94 system (copyright 1995, Gaussian, Inc.),
 the Gaussian 92(TM) system (copyright 1992, Gaussian, Inc.),
 the Gaussian 90(TM) system (copyright 1990, Gaussian, Inc.),
 the Gaussian 88(TM) system (copyright 1988, Gaussian, Inc.),
 the Gaussian 86(TM) system (copyright 1986, Carnegie Mellon
 University), and the Gaussian 82(TM) system (copyright 1983,
 Carnegie Mellon University). Gaussian is a federally registered
 trademark of Gaussian, Inc.
  
 This software contains proprietary and confidential information,
 including trade secrets, belonging to Gaussian, Inc.
  
 This software is provided under written license and may be
 used, copied, transmitted, or stored only in accord with that
 written license.
  
 The following legend is applicable only to US Government
 contracts under FAR:
  
                    RESTRICTED RIGHTS LEGEND
  
 Use, reproduction and disclosure by the US Government is
 subject to restrictions as set forth in subparagraphs (a)
 and (c) of the Commercial Computer Software - Restricted
 Rights clause in FAR 52.227-19.
  
 Gaussian, Inc.
 340 Quinnipiac St., Bldg. 40, Wallingford CT 06492
  
  
 ---------------------------------------------------------------
 Warning -- This program may not be used in any manner that
 competes with the business of Gaussian, Inc. or will provide
 assistance to any competitor of Gaussian, Inc.  The licensee
 of this program is prohibited from giving any competitor of
 Gaussian, Inc. access to this program.  By using this program,
 the user acknowledges that Gaussian, Inc. is engaged in the
 business of creating and licensing software in the field of
 computational chemistry and represents and warrants to the
 licensee that it is not a competitor of Gaussian, Inc. and that
 it will not use this program in any manner prohibited above.
 ---------------------------------------------------------------
  

 Cite this work as:
 Gaussian 16, Revision A.03,
 M. J. Frisch, G. W. Trucks, H. B. Schlegel, G. E. Scuseria, 
 M. A. Robb, J. R. Cheeseman, G. Scalmani, V. Barone, 
 G. A. Petersson, H. Nakatsuji, X. Li, M. Caricato, A. V. Marenich, 
 J. Bloino, B. G. Janesko, R. Gomperts, B. Mennucci, H. P. Hratchian, 
 J. V. Ortiz, A. F. Izmaylov, J. L. Sonnenberg, D. Williams-Young, 
 F. Ding, F. Lipparini, F. Egidi, J. Goings, B. Peng, A. Petrone, 
 T. Henderson, D. Ranasinghe, V. G. Zakrzewski, J. Gao, N. Rega, 
 G. Zheng, W. Liang, M. Hada, M. Ehara, K. Toyota, R. Fukuda, 
 J. Hasegawa, M. Ishida, T. Nakajima, Y. Honda, O. Kitao, H. Nakai, 
 T. Vreven, K. Throssell, J. A. Montgomery, Jr., J. E. Peralta, 
 F. Ogliaro, M. J. Bearpark, J. J. Heyd, E. N. Brothers, K. N. Kudin, 
 V. N. Staroverov, T. A. Keith, R. Kobayashi, J. Normand, 
 K. Raghavachari, A. P. Rendell, J. C. Burant, S. S. Iyengar, 
 J. Tomasi, M. Cossi, J. M. Millam, M. Klene, C. Adamo, R. Cammi, 
 J. W. Ochterski, R. L. Martin, K. Morokuma, O. Farkas, 
 J. B. Foresman, and D. J. Fox, Gaussian, Inc., Wallingford CT, 2016.
 
 ******************************************
 Gaussian 16:  ES64L-G16RevA.03 25-Dec-2016
                15-Sep-2025 
 ******************************************
 %chk=gauss.chk
 -------------------
 # hf/6-31G(d) force
 -------------------
 1/10=7,30=1,38=1/1,3;
 2/12=2,17=6,18=5,40=1/2;
 3/5=1,6=6,7=1,11=9,25=1,30=1,71=1/1,2,3;
 4//1;
 5/5=2,38=5/2;
 6/7=2,8=2,9=2,10=2,28=1/1;
 7/29=1/1,2,3,16;
 1/10=7,30=1/3;
 99//99;
 -----------------
 Force calculation
 -----------------
 Symbolic Z-matrix:
 Charge =  0 Multiplicity = 1
 C                    -2.84611   1.83142   0.01386 
 C                    -1.74396   2.35453   0.9146 
 C                    -1.02251   2.99491   3.90571 
 C                    -0.67741   1.83972   2.97438 
 H                    -2.65933   0.79598  -0.24762 
 H                    -2.90185   2.41514  -0.89984 
 H                    -3.80474   1.88733   0.51737 
 H                    -1.93763   3.39246   1.17678 
 H                    -0.78541   2.32387   0.39746 
 H                    -1.95836   2.79664   4.41678 
 H                    -0.24405   3.11793   4.65318 
 H                    -1.11907   3.93394   3.37124 
 H                     0.25574   2.04123   2.45025 
 H                    -0.53424   0.93602   3.55404 
 O                    -1.69363   1.55014   2.0569 
 

 GradGradGradGradGradGradGradGradGradGradGradGradGradGradGradGradGradGrad
 Berny optimization.
 Initialization pass.
 Trust Radius=3.00D-01 FncErr=1.00D-07 GrdErr=1.00D-07 EigMax=2.50D+02 EigMin=1.00D-04
 Number of steps in this run=      2 maximum allowed number of steps=      2.
 GradGradGradGradGradGradGradGradGradGradGradGradGradGradGradGradGradGrad

                          Input orientation:                          
 ---------------------------------------------------------------------
 Center     Atomic      Atomic             Coordinates (Angstroms)
 Number     Number       Type             X           Y           Z
 ---------------------------------------------------------------------
      1          6           0       -2.846109    1.831416    0.013863
      2          6           0       -1.743959    2.354526    0.914595
      3          6           0       -1.022514    2.994914    3.905707
      4          6           0       -0.677413    1.839720    2.974382
      5          1           0       -2.659325    0.795984   -0.247616
      6          1           0       -2.901854    2.415137   -0.899841
      7          1           0       -3.804738    1.887329    0.517375
      8          1           0       -1.937630    3.392457    1.176780
      9          1           0       -0.785406    2.323867    0.397464
     10          1           0       -1.958358    2.796643    4.416776
     11          1           0       -0.244053    3.117925    4.653177
     12          1           0       -1.119070    3.933938    3.371236
     13          1           0        0.255744    2.041229    2.450249
     14          1           0       -0.534244    0.936024    3.554044
     15          8           0       -1.693635    1.550144    2.056904
 ---------------------------------------------------------------------
                    Distance matrix (angstroms):
                    1          2          3          4          5
     1  C    0.000000
     2  C    1.516475   0.000000
     3  C    4.452604   3.142823   0.000000
     4  C    3.669875   2.375977   1.523461   0.000000
     5  H    1.084149   2.148879   4.976398   3.924109   0.000000
     6  H    1.085676   2.153270   5.192433   4.504314   1.762348
     7  H    1.084259   2.150085   4.521981   3.977350   1.757331
     8  H    2.148152   1.087912   2.905602   2.688961   3.048183
     9  H    2.153173   1.089582   3.579707   2.624227   2.502424
    10  H    4.594062   3.536482   1.084577   2.153375   5.123528
    11  H    5.472571   4.099938   1.086206   2.154057   5.936558
    12  H    4.321483   2.986656   1.084780   2.176764   5.031424
    13  H    3.949872   2.540709   2.159124   1.089084   4.162540
    14  H    4.321959   3.231447   2.145018   1.083131   4.357545
    15  O    2.362483   1.398010   2.440459   1.399403   2.610005
                    6          7          8          9         10
     6  H    0.000000
     7  H    1.761329   0.000000
     8  H    2.489425   2.487231   0.000000
     9  H    2.484086   3.053081   1.754092   0.000000
    10  H    5.413145   4.409229   3.294388   4.213574   0.000000
    11  H    6.196275   5.594435   3.876713   4.362876   1.760100
    12  H    4.871055   4.421080   2.403930   3.398086   1.758123
    13  H    4.618802   4.499689   2.873749   2.319010   3.056163
    14  H    5.256467   4.563165   3.695259   3.457339   2.496860
    15  O    3.309131   2.634502   2.056275   2.043836   2.681946
                   11         12         13         14         15
    11  H    0.000000
    12  H    1.753540   0.000000
    13  H    2.502392   2.514096   0.000000
    14  H    2.460284   3.059890   1.750407   0.000000
    15  O    3.361526   2.782098   2.048405   1.990668   0.000000
 Stoichiometry    C4H10O
 Framework group  C1[X(C4H10O)]
 Deg. of freedom    39
 Full point group                 C1      NOp   1
 Largest Abelian subgroup         C1      NOp   1
 Largest concise Abelian subgroup C1      NOp   1
                         Standard orientation:                         
 ---------------------------------------------------------------------
 Center     Atomic      Atomic             Coordinates (Angstroms)
 Number     Number       Type             X           Y           Z
 ---------------------------------------------------------------------
      1          6           0        2.328214    0.157455   -0.206075
      2          6           0        0.961814    0.226408    0.448061
      3          6           0       -2.102087    0.598321   -0.144834
      4          6           0       -1.239628   -0.619853    0.160374
      5          1           0        2.649027   -0.873817   -0.300603
      6          1           0        3.062291    0.696115    0.385252
      7          1           0        2.295706    0.595631   -1.197319
      8          1           0        0.642989    1.262694    0.537579
      9          1           0        1.002182   -0.188810    1.454615
     10          1           0       -2.109037    0.793950   -1.211599
     11          1           0       -3.124459    0.422780    0.177322
     12          1           0       -1.743893    1.488088    0.361881
     13          1           0       -1.220501   -0.811738    1.232250
     14          1           0       -1.664068   -1.494404   -0.317311
     15          8           0        0.064985   -0.508060   -0.333403
 ---------------------------------------------------------------------
 Rotational constants (GHZ):          14.1387239           2.4627265           2.3421077
 Standard basis: 6-31G(d) (6D, 7F)
 There are    95 symmetry adapted cartesian basis functions of A   symmetry.
 There are    95 symmetry adapted basis functions of A   symmetry.
    95 basis functions,   180 primitive gaussians,    95 cartesian basis functions
    21 alpha electrons       21 beta electrons
       nuclear repulsion energy       192.4611264464 Hartrees.
 NAtoms=   15 NActive=   15 NUniq=   15 SFac= 1.00D+00 NAtFMM=   60 NAOKFM=F Big=F
 Integral buffers will be    131072 words long.
 Raffenetti 1 integral format.
 Two-electron integral symmetry is turned on.
 One-electron integrals computed using PRISM.
 NBasis=    95 RedAO= T EigKep=  4.87D-03  NBF=    95
 NBsUse=    95 1.00D-06 EigRej= -1.00D+00 NBFU=    95
 ExpMin= 1.61D-01 ExpMax= 5.48D+03 ExpMxC= 8.25D+02 IAcc=3 IRadAn=         5 AccDes= 0.00D+00
 Harris functional with IExCor=  205 and IRadAn=       5 diagonalized for initial guess.
 HarFok:  IExCor=  205 AccDes= 0.00D+00 IRadAn=         5 IDoV= 1 UseB2=F ITyADJ=14
 ICtDFT=  3500011 ScaDFX=  1.000000  1.000000  1.000000  1.000000
 FoFCou: FMM=F IPFlag=           0 FMFlag=      100000 FMFlg1=           0
         NFxFlg=           0 DoJE=T BraDBF=F KetDBF=T FulRan=T
         wScrn=  0.000000 ICntrl=       500 IOpCl=  0 I1Cent=   200000004 NGrid=           0
         NMat0=    1 NMatS0=      1 NMatT0=    0 NMatD0=    1 NMtDS0=    0 NMtDT0=    0
 Petite list used in FoFCou.
 Keep R1 ints in memory in canonical form, NReq=11281941.
 Requested convergence on RMS density matrix=1.00D-08 within 128 cycles.
 Requested convergence on MAX density matrix=1.00D-06.
 Requested convergence on             energy=1.00D-06.
 No special actions if energy rises.
 SCF Done:  E(RHF) =  -232.142216669     A.U. after   12 cycles
            NFock= 12  Conv=0.35D-08     -V/T= 2.0009

 **********************************************************************

            Population analysis using the SCF density.

 **********************************************************************

 Orbital symmetries:
       Occupied  (A) (A) (A) (A) (A) (A) (A) (A) (A) (A) (A) (A)
                 (A) (A) (A) (A) (A) (A) (A) (A) (A)
       Virtual   (A) (A) (A) (A) (A) (A) (A) (A) (A) (A) (A) (A)
                 (A) (A) (A) (A) (A) (A) (A) (A) (A) (A) (A) (A)
                 (A) (A) (A) (A) (A) (A) (A) (A) (A) (A) (A) (A)
                 (A) (A) (A) (A) (A) (A) (A) (A) (A) (A) (A) (A)
                 (A) (A) (A) (A) (A) (A) (A) (A) (A) (A) (A) (A)
                 (A) (A) (A) (A) (A) (A) (A) (A) (A) (A) (A) (A)
                 (A) (A)
 The electronic state is 1-A.
 Alpha  occ. eigenvalues --  -20.54990 -11.26822 -11.26786 -11.21069 -11.20837
 Alpha  occ. eigenvalues --   -1.37453  -1.04077  -0.98588  -0.86177  -0.81326
 Alpha  occ. eigenvalues --   -0.67227  -0.64608  -0.64502  -0.57472  -0.54941
 Alpha  occ. eigenvalues --   -0.54414  -0.52362  -0.50221  -0.48717  -0.45671
 Alpha  occ. eigenvalues --   -0.40759
 Alpha virt. eigenvalues --    0.23498   0.26133   0.28083   0.29371   0.31618
 Alpha virt. eigenvalues --    0.32150   0.32725   0.33937   0.34470   0.36208
 Alpha virt. eigenvalues --    0.38088   0.41778   0.42878   0.46023   0.69921
 Alpha virt. eigenvalues --    0.73542   0.75548   0.76610   0.77452   0.79134
 Alpha virt. eigenvalues --    0.83937   0.87751   0.91511   0.94533   0.97292
 Alpha virt. eigenvalues --    1.05896   1.10714   1.13100   1.14054   1.16917
 Alpha virt. eigenvalues --    1.18120   1.19056   1.19834   1.21678   1.22821
 Alpha virt. eigenvalues --    1.25128   1.27096   1.31846   1.40303   1.43869
 Alpha virt. eigenvalues --    1.56484   1.63954   1.70047   1.74220   1.75596
 Alpha virt. eigenvalues --    1.86199   1.99360   2.02651   2.08784   2.18527
 Alpha virt. eigenvalues --    2.22956   2.26908   2.28330   2.32771   2.43839
 Alpha virt. eigenvalues --    2.44479   2.52046   2.55363   2.58455   2.64733
 Alpha virt. eigenvalues --    2.65784   2.68858   2.76495   2.79971   2.85859
 Alpha virt. eigenvalues --    3.00175   3.05130   3.20615   3.33975   4.37659
 Alpha virt. eigenvalues --    4.61930   4.62240   4.82244   4.88699
          Condensed to atoms (all electrons):
               1          2          3          4          5          6
     1  C    5.094447   0.365957  -0.000166   0.004722   0.389616   0.383127
     2  C    0.365957   4.769398  -0.004377  -0.045185  -0.035303  -0.037168
     3  C   -0.000166  -0.004377   5.160525   0.342346   0.000011   0.000007
     4  C    0.004722  -0.045185   0.342346   4.765267  -0.000080  -0.000122
     5  H    0.389616  -0.035303   0.000011  -0.000080   0.523393  -0.025384
     6  H    0.383127  -0.037168   0.000007  -0.000122  -0.025384   0.548380
     7  H    0.390709  -0.035251  -0.000002  -0.000205  -0.027531  -0.025754
     8  H   -0.044047   0.395958   0.002518  -0.000827   0.004855   0.000137
     9  H   -0.040533   0.398147  -0.000462  -0.008277  -0.005024  -0.000391
    10  H   -0.000041  -0.000073   0.388778  -0.035160   0.000001   0.000001
    11  H    0.000003   0.000062   0.377842  -0.033517  -0.000000  -0.000000
    12  H    0.000017   0.000970   0.390082  -0.032532  -0.000002   0.000001
    13  H   -0.000173  -0.009060  -0.055249   0.397552  -0.000009   0.000013
    14  H   -0.000109   0.005199  -0.049135   0.415162  -0.000018   0.000001
    15  O   -0.056314   0.209504  -0.052035   0.213865   0.002006   0.002963
               7          8          9         10         11         12
     1  C    0.390709  -0.044047  -0.040533  -0.000041   0.000003   0.000017
     2  C   -0.035251   0.395958   0.398147  -0.000073   0.000062   0.000970
     3  C   -0.000002   0.002518  -0.000462   0.388778   0.377842   0.390082
     4  C   -0.000205  -0.000827  -0.008277  -0.035160  -0.033517  -0.032532
     5  H   -0.027531   0.004855  -0.005024   0.000001  -0.000000  -0.000002
     6  H   -0.025754   0.000137  -0.000391   0.000001  -0.000000   0.000001
     7  H    0.524358  -0.005289   0.004716   0.000008   0.000000   0.000006
     8  H   -0.005289   0.607662  -0.052200   0.000072  -0.000192  -0.000949
     9  H    0.004716  -0.052200   0.602282   0.000052   0.000038   0.000078
    10  H    0.000008   0.000072   0.000052   0.523084  -0.024946  -0.028204
    11  H    0.000000  -0.000192   0.000038  -0.024946   0.548411  -0.027451
    12  H    0.000006  -0.000949   0.000078  -0.028204  -0.027451   0.537438
    13  H    0.000023  -0.000877   0.008682   0.004683   0.000904  -0.003840
    14  H    0.000006  -0.000332   0.000058  -0.003768  -0.000761   0.003910
    15  O    0.001510  -0.043580  -0.042775   0.001255   0.003048  -0.000453
              13         14         15
     1  C   -0.000173  -0.000109  -0.056314
     2  C   -0.009060   0.005199   0.209504
     3  C   -0.055249  -0.049135  -0.052035
     4  C    0.397552   0.415162   0.213865
     5  H   -0.000009  -0.000018   0.002006
     6  H    0.000013   0.000001   0.002963
     7  H    0.000023   0.000006   0.001510
     8  H   -0.000877  -0.000332  -0.043580
     9  H    0.008682   0.000058  -0.042775
    10  H    0.004683  -0.003768   0.001255
    11  H    0.000904  -0.000761   0.003048
    12  H   -0.003840   0.003910  -0.000453
    13  H    0.594784  -0.034421  -0.039173
    14  H   -0.034421   0.533541  -0.038603
    15  O   -0.039173  -0.038603   8.459335
 Mulliken charges:
               1
     1  C   -0.487215
     2  C    0.021222
     3  C   -0.500684
     4  C    0.016992
     5  H    0.173468
     6  H    0.154189
     7  H    0.172696
     8  H    0.137092
     9  H    0.135610
    10  H    0.174260
    11  H    0.156560
    12  H    0.160931
    13  H    0.136163
    14  H    0.169270
    15  O   -0.620553
 Sum of Mulliken charges =  -0.00000
 Mulliken charges with hydrogens summed into heavy atoms:
               1
     1  C    0.013138
     2  C    0.293924
     3  C   -0.008934
     4  C    0.322425
    15  O   -0.620553
 Electronic spatial extent (au):  <R**2>=            588.9602
 Charge=             -0.0000 electrons
 Dipole moment (field-independent basis, Debye):
    X=             -0.3920    Y=              0.5924    Z=              1.1216  Tot=              1.3276
 Quadrupole moment (field-independent basis, Debye-Ang):
   XX=            -31.0529   YY=            -33.4790   ZZ=            -33.5171
   XY=              1.2334   XZ=              0.4334   YZ=             -0.4660
 Traceless Quadrupole moment (field-independent basis, Debye-Ang):
   XX=              1.6301   YY=             -0.7960   ZZ=             -0.8341
   XY=              1.2334   XZ=              0.4334   YZ=             -0.4660
 Octapole moment (field-independent basis, Debye-Ang**2):
  XXX=             -1.1433  YYY=             -2.5279  ZZZ=             -1.4390  XYY=             -0.1347
  XXY=             -2.7652  XXZ=              0.0526  XZZ=              0.0170  YZZ=             -0.2596
  YYZ=             -0.1360  XYZ=             -0.1650
 Hexadecapole moment (field-independent basis, Debye-Ang**3):
 XXXX=           -617.1189 YYYY=           -106.5633 ZZZZ=            -76.6262 XXXY=              5.1700
 XXXZ=              0.7523 YYYX=              1.6260 YYYZ=              2.2838 ZZZX=              0.8690
 ZZZY=             -1.3707 XXYY=           -120.0247 XXZZ=           -115.4628 YYZZ=            -30.8259
 XXYZ=              1.6000 YYXZ=              0.5894 ZZXY=              1.1470
 N-N= 1.924611264464D+02 E-N=-9.279588122400D+02  KE= 2.319325272395D+02
 Calling FoFJK, ICntrl=      2127 FMM=F ISym2X=0 I1Cent= 0 IOpClX= 0 NMat=1 NMatS=1 NMatT=0.
 ***** Axes restored to original set *****
 -------------------------------------------------------------------
 Center     Atomic                   Forces (Hartrees/Bohr)
 Number     Number              X              Y              Z
 -------------------------------------------------------------------
      1        6          -0.000124822    0.000020746   -0.000007627
      2        6           0.000074759   -0.000077088    0.000042894
      3        6           0.000061574   -0.000079082    0.000038138
      4        6          -0.000050494   -0.000007847   -0.000024859
      5        1           0.000046537    0.000068097   -0.000002624
      6        1          -0.000002899    0.000126017    0.000002795
      7        1           0.000054589   -0.000134377    0.000031348
      8        1           0.000079184    0.000045508    0.000083861
      9        1           0.000011780    0.000020262   -0.000036618
     10        1          -0.000043512    0.000031844   -0.000089477
     11        1           0.000058201    0.000068439   -0.000055719
     12        1          -0.000119295   -0.000010873   -0.000071300
     13        1           0.000004857   -0.000066423   -0.000033454
     14        1          -0.000018165    0.000046927    0.000093638
     15        8          -0.000032296   -0.000052149    0.000029001
 -------------------------------------------------------------------
 Cartesian Forces:  Max     0.000134377 RMS     0.000061308

 GradGradGradGradGradGradGradGradGradGradGradGradGradGradGradGradGradGrad
 Berny optimization.
 Search for a local minimum.
 Step number   1 out of a maximum of    2
 All quantities printed in internal units (Hartrees-Bohrs-Radians)
 Second derivative matrix not updated -- first step.
 ITU=  0
     Eigenvalues ---    0.00157   0.00279   0.00342   0.00673   0.01156
     Eigenvalues ---    0.01931   0.03486   0.04253   0.04737   0.05169
     Eigenvalues ---    0.05253   0.06027   0.07479   0.07622   0.09171
     Eigenvalues ---    0.09771   0.12334   0.13264   0.13528   0.13807
     Eigenvalues ---    0.14404   0.15334   0.16346   0.20100   0.22230
     Eigenvalues ---    0.29909   0.32158   0.53154   0.58322   0.77791
     Eigenvalues ---    0.79193   0.85558   0.88673   0.96480   1.00190
     Eigenvalues ---    1.02773   1.04096   1.14357   1.32762
 Angle between quadratic step and forces=  54.39 degrees.
 Linear search not attempted -- first point.
 B after Tr=    -0.000766   -0.002756    0.000877
         Rot=    1.000000    0.000058    0.000022    0.000143 Ang=   0.02 deg.
 Variable       Old X    -DE/DX   Delta X   Delta X   Delta X     New X
                                 (Linear)    (Quad)   (Total)
    X1       -5.37837  -0.00012   0.00000   0.00206   0.00228  -5.37609
    Y1        3.46087   0.00002   0.00000   0.00666   0.00544   3.46632
    Z1        0.02620  -0.00001   0.00000   0.00308   0.00331   0.02951
    X2       -3.29561   0.00007   0.00000   0.00149   0.00191  -3.29369
    Y2        4.44941  -0.00008   0.00000  -0.00214  -0.00375   4.44566
    Z2        1.72833   0.00004   0.00000   0.00876   0.00897   1.73730
    X3       -1.93227   0.00006   0.00000  -0.00260  -0.00208  -1.93435
    Y3        5.65957  -0.00008   0.00000   0.00457   0.00323   5.66280
    Z3        7.38072   0.00004   0.00000  -0.01455  -0.01442   7.36630
    X4       -1.28012  -0.00005   0.00000  -0.00082  -0.00084  -1.28097
    Y4        3.47657  -0.00001   0.00000  -0.00892  -0.01065   3.46592
    Z4        5.62077  -0.00002   0.00000   0.00334   0.00376   5.62453
    X5       -5.02540   0.00005   0.00000   0.01468   0.01437  -5.01103
    Y5        1.50419   0.00007   0.00000   0.01615   0.01476   1.51896
    Z5       -0.46793  -0.00000   0.00000  -0.02481  -0.02434  -0.49226
    X6       -5.48371  -0.00000   0.00000  -0.01162  -0.01100  -5.49471
    Y6        4.56395   0.00013   0.00000   0.03033   0.02895   4.59289
    Z6       -1.70045   0.00000   0.00000   0.01881   0.01891  -1.68155
    X7       -7.18991   0.00005   0.00000   0.00499   0.00519  -7.18472
    Y7        3.56653  -0.00013   0.00000  -0.02022  -0.02081   3.54573
    Z7        0.97770   0.00003   0.00000   0.01140   0.01154   0.98923
    X8       -3.66159   0.00008   0.00000  -0.00087   0.00009  -3.66150
    Y8        6.41081   0.00005   0.00000  -0.00578  -0.00723   6.40358
    Z8        2.22379   0.00008   0.00000   0.02203   0.02199   2.24579
    X9       -1.48420   0.00001   0.00000   0.00151   0.00196  -1.48224
    Y9        4.39147   0.00002   0.00000   0.00749   0.00525   4.39672
    Z9        0.75110  -0.00004   0.00000   0.00806   0.00836   0.75945
   X10       -3.70076  -0.00004   0.00000  -0.00139  -0.00102  -3.70178
   Y10        5.28489   0.00003   0.00000   0.00980   0.00907   5.29396
   Z10        8.34650  -0.00009   0.00000  -0.01037  -0.01028   8.33622
   X11       -0.46119   0.00006   0.00000  -0.00107  -0.00054  -0.46173
   Y11        5.89202   0.00007   0.00000   0.02156   0.01996   5.91199
   Z11        8.79323  -0.00006   0.00000  -0.01889  -0.01873   8.77450
   X12       -2.11474  -0.00012   0.00000  -0.00894  -0.00787  -2.12261
   Y12        7.43407  -0.00001   0.00000  -0.00549  -0.00690   7.42717
   Z12        6.37071  -0.00007   0.00000  -0.03128  -0.03137   6.33935
   X13        0.48329   0.00000   0.00000   0.00164   0.00176   0.48505
   Y13        3.85736  -0.00007   0.00000  -0.01737  -0.01973   3.83764
   Z13        4.63030  -0.00003   0.00000   0.00442   0.00487   4.63517
   X14       -1.00957  -0.00002   0.00000  -0.00590  -0.00646  -1.01604
   Y14        1.76883   0.00005   0.00000  -0.00231  -0.00398   1.76484
   Z14        6.71617   0.00009   0.00000   0.01495   0.01558   6.73175
   X15       -3.20051  -0.00003   0.00000   0.00235   0.00225  -3.19826
   Y15        2.92935  -0.00005   0.00000  -0.01223  -0.01362   2.91573
   Z15        3.88698   0.00003   0.00000   0.00146   0.00185   3.88884
         Item               Value     Threshold  Converged?
 Maximum Force            0.000134     0.000450     YES
 RMS     Force            0.000061     0.000300     YES
 Maximum Displacement     0.031368     0.001800     NO 
 RMS     Displacement     0.012472     0.001200     NO 
 Predicted change in Energy=-1.004723D-05
 GradGradGradGradGradGradGradGradGradGradGradGradGradGradGradGradGradGrad

 1\1\GINC-MU01\Force\RHF\6-31G(d)\C4H10O1\LBL8\15-Sep-2025\0\\# hf/6-31
 G(d) force\\Force calculation\\0,1\C,-2.8461092,1.83141593,0.01386338\
 C,-1.74395912,2.35452553,0.91459509\C,-1.02251356,2.99491424,3.9057073
 2\C,-0.67741257,1.83972024,2.97438199\H,-2.65932539,0.7959844,-0.24761
 579\H,-2.9018543,2.41513651,-0.89984092\H,-3.80473751,1.88732867,0.517
 37459\H,-1.93763043,3.39245718,1.17678017\H,-0.78540636,2.32386704,0.3
 9746352\H,-1.95835843,2.79664332,4.41677559\H,-0.24405313,3.11792518,4
 .6531771\H,-1.11907025,3.93393814,3.37123633\H,0.25574432,2.04122922,2
 .45024867\H,-0.53424397,0.93602402,3.55404413\O,-1.69363454,1.55014425
 ,2.05690383\\Version=ES64L-G16RevA.03\State=1-A\HF=-232.1422167\RMSD=3
 .510e-09\RMSF=6.131e-05\Dipole=0.3330919,0.3969051,-0.0658292\Quadrupo
 le=0.0444934,-1.0906211,1.0461277,-0.4902143,0.7855633,-0.4077364\PG=C
 01 [X(C4H10O1)]\\@


 SOME PEOPLE TRY TO PULL THE WOOL OVER YOUR EYES
 USING THE WRONG YARN.
 Job cpu time:       0 days  0 hours  0 minutes  2.4 seconds.
 Elapsed time:       0 days  0 hours  0 minutes  2.5 seconds.
 File lengths (MBytes):  RWF=     22 Int=      0 D2E=      0 Chk=      3 Scr=      2
 Normal termination of Gaussian 16 at Mon Sep 15 21:33:02 2025.
