 Entering Gaussian System, Link 0=g16
 Input=gauss.gjf
 Output=gauss.log
 Initial command:
 /software/Applications/gaussian/G16.A03.AVX/g16/l1.exe "/home/lbl8/code/hartree-fock_geomopt-rev-3/example/Gau-3226982.inp" -scrdir="/home/lbl8/code/hartree-fock_geomopt-rev-3/example/"
 Entering Link 1 = /software/Applications/gaussian/G16.A03.AVX/g16/l1.exe PID=   3226984.
  
 Copyright (c) 1988,1990,1992,1993,1995,1998,2003,2009,2016,
            Gaussian, Inc.  All Rights Reserved.
  
 This is part of the Gaussian(R) 16 program.  It is based on
 the Gaussian(R) 09 system (copyright 2009, Gaussian, Inc.),
 the Gaussian(R) 03 system (copyright 2003, Gaussian, Inc.),
 the Gaussian(R) 98 system (copyright 1998, Gaussian, Inc.),
 the Gaussian(R) 94 system (copyright 1995, Gaussian, Inc.),
 the Gaussian 92(TM) system (copyright 1992, Gaussian, Inc.),
 the Gaussian 90(TM) system (copyright 1990, Gaussian, Inc.),
 the Gaussian 88(TM) system (copyright 1988, Gaussian, Inc.),
 the Gaussian 86(TM) system (copyright 1986, Carnegie Mellon
 University), and the Gaussian 82(TM) system (copyright 1983,
 Carnegie Mellon University). Gaussian is a federally registered
 trademark of Gaussian, Inc.
  
 This software contains proprietary and confidential information,
 including trade secrets, belonging to Gaussian, Inc.
  
 This software is provided under written license and may be
 used, copied, transmitted, or stored only in accord with that
 written license.
  
 The following legend is applicable only to US Government
 contracts under FAR:
  
                    RESTRICTED RIGHTS LEGEND
  
 Use, reproduction and disclosure by the US Government is
 subject to restrictions as set forth in subparagraphs (a)
 and (c) of the Commercial Computer Software - Restricted
 Rights clause in FAR 52.227-19.
  
 Gaussian, Inc.
 340 Quinnipiac St., Bldg. 40, Wallingford CT 06492
  
  
 ---------------------------------------------------------------
 Warning -- This program may not be used in any manner that
 competes with the business of Gaussian, Inc. or will provide
 assistance to any competitor of Gaussian, Inc.  The licensee
 of this program is prohibited from giving any competitor of
 Gaussian, Inc. access to this program.  By using this program,
 the user acknowledges that Gaussian, Inc. is engaged in the
 business of creating and licensing software in the field of
 computational chemistry and represents and warrants to the
 licensee that it is not a competitor of Gaussian, Inc. and that
 it will not use this program in any manner prohibited above.
 ---------------------------------------------------------------
  

 Cite this work as:
 Gaussian 16, Revision A.03,
 M. J. Frisch, G. W. Trucks, H. B. Schlegel, G. E. Scuseria, 
 M. A. Robb, J. R. Cheeseman, G. Scalmani, V. Barone, 
 G. A. Petersson, H. Nakatsuji, X. Li, M. Caricato, A. V. Marenich, 
 J. Bloino, B. G. Janesko, R. Gomperts, B. Mennucci, H. P. Hratchian, 
 J. V. Ortiz, A. F. Izmaylov, J. L. Sonnenberg, D. Williams-Young, 
 F. Ding, F. Lipparini, F. Egidi, J. Goings, B. Peng, A. Petrone, 
 T. Henderson, D. Ranasinghe, V. G. Zakrzewski, J. Gao, N. Rega, 
 G. Zheng, W. Liang, M. Hada, M. Ehara, K. Toyota, R. Fukuda, 
 J. Hasegawa, M. Ishida, T. Nakajima, Y. Honda, O. Kitao, H. Nakai, 
 T. Vreven, K. Throssell, J. A. Montgomery, Jr., J. E. Peralta, 
 F. Ogliaro, M. J. Bearpark, J. J. Heyd, E. N. Brothers, K. N. Kudin, 
 V. N. Staroverov, T. A. Keith, R. Kobayashi, J. Normand, 
 K. Raghavachari, A. P. Rendell, J. C. Burant, S. S. Iyengar, 
 J. Tomasi, M. Cossi, J. M. Millam, M. Klene, C. Adamo, R. Cammi, 
 J. W. Ochterski, R. L. Martin, K. Morokuma, O. Farkas, 
 J. B. Foresman, and D. J. Fox, Gaussian, Inc., Wallingford CT, 2016.
 
 ******************************************
 Gaussian 16:  ES64L-G16RevA.03 25-Dec-2016
                15-Sep-2025 
 ******************************************
 %chk=gauss.chk
 -------------------
 # hf/6-31G(d) force
 -------------------
 1/10=7,30=1,38=1/1,3;
 2/12=2,17=6,18=5,40=1/2;
 3/5=1,6=6,7=1,11=9,25=1,30=1,71=1/1,2,3;
 4//1;
 5/5=2,38=5/2;
 6/7=2,8=2,9=2,10=2,28=1/1;
 7/29=1/1,2,3,16;
 1/10=7,30=1/3;
 99//99;
 -----------------
 Force calculation
 -----------------
 Symbolic Z-matrix:
 Charge =  0 Multiplicity = 1
 C                    -2.70404   0.47193  -0.02946 
 C                    -2.13109   1.17161   1.24168 
 C                    -0.80343   0.58608   1.73149 
 F                     0.11481   0.71527   0.8033 
 F                    -2.89607   1.34866  -0.98142 
 F                    -3.84277  -0.10986   0.24778 
 F                    -1.93425   2.4568    0.98499 
 F                    -3.00691   1.06666   2.23088 
 F                    -0.408     1.2237    2.80598 
 F                    -0.96015  -0.68345   2.02569 
 F                    -1.87269  -0.44492  -0.47603 
 

 GradGradGradGradGradGradGradGradGradGradGradGradGradGradGradGradGradGrad
 Berny optimization.
 Initialization pass.
 Trust Radius=3.00D-01 FncErr=1.00D-07 GrdErr=1.00D-07 EigMax=2.50D+02 EigMin=1.00D-04
 Number of steps in this run=      2 maximum allowed number of steps=      2.
 GradGradGradGradGradGradGradGradGradGradGradGradGradGradGradGradGradGrad

                          Input orientation:                          
 ---------------------------------------------------------------------
 Center     Atomic      Atomic             Coordinates (Angstroms)
 Number     Number       Type             X           Y           Z
 ---------------------------------------------------------------------
      1          6           0       -2.704040    0.471925   -0.029460
      2          6           0       -2.131086    1.171612    1.241678
      3          6           0       -0.803431    0.586079    1.731486
      4          9           0        0.114811    0.715267    0.803300
      5          9           0       -2.896074    1.348659   -0.981421
      6          9           0       -3.842772   -0.109863    0.247776
      7          9           0       -1.934246    2.456799    0.984994
      8          9           0       -3.006909    1.066661    2.230885
      9          9           0       -0.407996    1.223701    2.805982
     10          9           0       -0.960145   -0.683446    2.025688
     11          9           0       -1.872689   -0.444916   -0.476029
 ---------------------------------------------------------------------
                    Distance matrix (angstroms):
                    1          2          3          4          5
     1  C    0.000000
     2  C    1.560010   0.000000
     3  C    2.593507   1.531479   0.000000
     4  F    2.949344   2.333341   1.312017   0.000000
     5  F    1.308345   2.357694   3.510063   3.556942   0.000000
     6  F    1.308452   2.357942   3.453017   4.080675   2.129424
     7  F    2.358267   1.325269   2.309889   2.695289   2.453543
     8  F    2.356819   1.325372   2.309907   3.450595   3.226563
     9  F    3.725147   2.327832   1.310524   2.131330   4.533273
    10  F    2.932522   2.329595   1.312558   2.146197   4.113389
    11  F    1.315738   2.372857   2.660713   2.633034   2.125946
                    6          7          8          9         10
     6  F    0.000000
     7  F    3.282334   0.000000
     8  F    2.452671   2.152983   0.000000
     9  F    4.485588   2.676933   2.666411   0.000000
    10  F    3.435040   3.448631   2.700781   2.133293   0.000000
    11  F    2.125413   3.249359   3.301318   3.962476   2.673616
                   11
    11  F    0.000000
 Stoichiometry    C3F8
 Framework group  C1[X(C3F8)]
 Deg. of freedom    27
 Full point group                 C1      NOp   1
 Largest Abelian subgroup         C1      NOp   1
 Largest concise Abelian subgroup C1      NOp   1
                         Standard orientation:                         
 ---------------------------------------------------------------------
 Center     Atomic      Atomic             Coordinates (Angstroms)
 Number     Number       Type             X           Y           Z
 ---------------------------------------------------------------------
      1          6           0       -1.307351   -0.208939   -0.000744
      2          6           0        0.020997    0.609059   -0.000234
      3          6           0        1.285754   -0.254547   -0.000402
      4          9           0        1.321174   -1.000087   -1.079432
      5          9           0       -2.049814    0.133492   -1.022144
      6          9           0       -1.975600    0.011109    1.102465
      7          9           0        0.061282    1.382609   -1.075565
      8          9           0        0.059614    1.379637    1.077415
      9          9           0        2.346857    0.514420    0.014558
     10          9           0        1.301210   -1.018809    1.066590
     11          9           0       -1.064323   -1.499421   -0.082969
 ---------------------------------------------------------------------
 Rotational constants (GHZ):           1.7079877           0.9778749           0.9172160
 Standard basis: 6-31G(d) (6D, 7F)
 There are   165 symmetry adapted cartesian basis functions of A   symmetry.
 There are   165 symmetry adapted basis functions of A   symmetry.
   165 basis functions,   308 primitive gaussians,   165 cartesian basis functions
    45 alpha electrons       45 beta electrons
       nuclear repulsion energy       806.4992938862 Hartrees.
 NAtoms=   11 NActive=   11 NUniq=   11 SFac= 1.00D+00 NAtFMM=   60 NAOKFM=F Big=F
 Integral buffers will be    131072 words long.
 Raffenetti 1 integral format.
 Two-electron integral symmetry is turned on.
 One-electron integrals computed using PRISM.
 NBasis=   165 RedAO= T EigKep=  8.27D-04  NBF=   165
 NBsUse=   165 1.00D-06 EigRej= -1.00D+00 NBFU=   165
 ExpMin= 1.69D-01 ExpMax= 7.00D+03 ExpMxC= 1.05D+03 IAcc=3 IRadAn=         5 AccDes= 0.00D+00
 Harris functional with IExCor=  205 and IRadAn=       5 diagonalized for initial guess.
 HarFok:  IExCor=  205 AccDes= 0.00D+00 IRadAn=         5 IDoV= 1 UseB2=F ITyADJ=14
 ICtDFT=  3500011 ScaDFX=  1.000000  1.000000  1.000000  1.000000
 FoFCou: FMM=F IPFlag=           0 FMFlag=      100000 FMFlg1=           0
         NFxFlg=           0 DoJE=T BraDBF=F KetDBF=T FulRan=T
         wScrn=  0.000000 ICntrl=       500 IOpCl=  0 I1Cent=   200000004 NGrid=           0
         NMat0=    1 NMatS0=      1 NMatT0=    0 NMatD0=    1 NMtDS0=    0 NMtDT0=    0
 Petite list used in FoFCou.
 Keep R1 ints in memory in canonical form, NReq=96071382.
 Requested convergence on RMS density matrix=1.00D-08 within 128 cycles.
 Requested convergence on MAX density matrix=1.00D-06.
 Requested convergence on             energy=1.00D-06.
 No special actions if energy rises.
 SCF Done:  E(RHF) =  -909.119884466     A.U. after   11 cycles
            NFock= 11  Conv=0.54D-08     -V/T= 2.0019

 **********************************************************************

            Population analysis using the SCF density.

 **********************************************************************

 Orbital symmetries:
       Occupied  (A) (A) (A) (A) (A) (A) (A) (A) (A) (A) (A) (A)
                 (A) (A) (A) (A) (A) (A) (A) (A) (A) (A) (A) (A)
                 (A) (A) (A) (A) (A) (A) (A) (A) (A) (A) (A) (A)
                 (A) (A) (A) (A) (A) (A) (A) (A) (A)
       Virtual   (A) (A) (A) (A) (A) (A) (A) (A) (A) (A) (A) (A)
                 (A) (A) (A) (A) (A) (A) (A) (A) (A) (A) (A) (A)
                 (A) (A) (A) (A) (A) (A) (A) (A) (A) (A) (A) (A)
                 (A) (A) (A) (A) (A) (A) (A) (A) (A) (A) (A) (A)
                 (A) (A) (A) (A) (A) (A) (A) (A) (A) (A) (A) (A)
                 (A) (A) (A) (A) (A) (A) (A) (A) (A) (A) (A) (A)
                 (A) (A) (A) (A) (A) (A) (A) (A) (A) (A) (A) (A)
                 (A) (A) (A) (A) (A) (A) (A) (A) (A) (A) (A) (A)
                 (A) (A) (A) (A) (A) (A) (A) (A) (A) (A) (A) (A)
                 (A) (A) (A) (A) (A) (A) (A) (A) (A) (A) (A) (A)
 The electronic state is 1-A.
 Alpha  occ. eigenvalues --  -26.37810 -26.37803 -26.37755 -26.37652 -26.37638
 Alpha  occ. eigenvalues --  -26.37614 -26.37344 -26.37329 -11.54934 -11.54530
 Alpha  occ. eigenvalues --  -11.48087  -1.78908  -1.77791  -1.73184  -1.68307
 Alpha  occ. eigenvalues --   -1.67766  -1.67670  -1.67296  -1.66038  -1.12133
 Alpha  occ. eigenvalues --   -1.02401  -0.95542  -0.90876  -0.88890  -0.87598
 Alpha  occ. eigenvalues --   -0.86583  -0.85736  -0.85288  -0.81351  -0.76287
 Alpha  occ. eigenvalues --   -0.75308  -0.74776  -0.74057  -0.73878  -0.72772
 Alpha  occ. eigenvalues --   -0.71418  -0.70184  -0.70166  -0.68418  -0.68108
 Alpha  occ. eigenvalues --   -0.68038  -0.67159  -0.67012  -0.63224  -0.55935
 Alpha virt. eigenvalues --    0.24308   0.25074   0.35670   0.39845   0.42198
 Alpha virt. eigenvalues --    0.44628   0.46676   0.51041   0.52084   0.56217
 Alpha virt. eigenvalues --    0.64593   0.64995   0.68409   0.68791   0.71797
 Alpha virt. eigenvalues --    0.76578   0.77331   0.85879   0.87249   0.90930
 Alpha virt. eigenvalues --    1.03882   1.14379   1.20566   1.23992   1.25115
 Alpha virt. eigenvalues --    1.31588   1.33178   1.34219   1.34675   1.36074
 Alpha virt. eigenvalues --    1.40156   1.48265   1.51331   1.52506   1.52822
 Alpha virt. eigenvalues --    1.56438   1.56871   1.59522   1.60972   1.61513
 Alpha virt. eigenvalues --    1.63064   1.63386   1.64694   1.65122   1.66717
 Alpha virt. eigenvalues --    1.67777   1.68832   1.71834   1.73471   1.79126
 Alpha virt. eigenvalues --    1.79541   1.81120   1.84726   1.89155   1.93741
 Alpha virt. eigenvalues --    1.96778   1.97496   1.98883   2.02640   2.05832
 Alpha virt. eigenvalues --    2.06093   2.07662   2.08459   2.09349   2.10962
 Alpha virt. eigenvalues --    2.12912   2.14385   2.18077   2.21023   2.26894
 Alpha virt. eigenvalues --    2.27484   2.30079   2.30959   2.32493   2.33045
 Alpha virt. eigenvalues --    2.37690   2.38352   2.38790   2.38967   2.40334
 Alpha virt. eigenvalues --    2.40690   2.44288   2.46307   2.50914   2.51231
 Alpha virt. eigenvalues --    2.56314   2.65871   2.70949   2.75255   2.78340
 Alpha virt. eigenvalues --    2.86853   2.92103   2.97773   2.98134   3.03524
 Alpha virt. eigenvalues --    3.09124   3.14805   3.16609   3.27602   3.28350
 Alpha virt. eigenvalues --    3.31947   3.36699   3.40322   3.41209   3.42618
 Alpha virt. eigenvalues --    3.45356   3.50230   3.51055   3.53304   4.45655
 Alpha virt. eigenvalues --    4.52120   4.72847   4.81027   5.09301   5.26761
 Alpha virt. eigenvalues --    5.50923   5.57255   6.16416   6.23621   7.50362
          Condensed to atoms (all electrons):
               1          2          3          4          5          6
     1  C    3.763793   0.366000  -0.070469   0.007187   0.290686   0.291106
     2  C    0.366000   4.435127   0.385549  -0.039552  -0.028132  -0.029611
     3  C   -0.070469   0.385549   3.761998   0.275735   0.001059   0.000973
     4  F    0.007187  -0.039552   0.275735   9.166218  -0.000064   0.000001
     5  F    0.290686  -0.028132   0.001059  -0.000064   9.142604  -0.034879
     6  F    0.291106  -0.029611   0.000973   0.000001  -0.034879   9.142823
     7  F   -0.016951   0.216803  -0.019577   0.001108  -0.000778   0.000274
     8  F   -0.017131   0.216610  -0.019715   0.000368   0.000239  -0.000667
     9  F    0.001432  -0.025579   0.297741  -0.034402  -0.000001  -0.000001
    10  F    0.008936  -0.041482   0.275389  -0.030402   0.000001  -0.000105
    11  F    0.285664  -0.036585   0.012308  -0.001489  -0.035754  -0.035894
               7          8          9         10         11
     1  C   -0.016951  -0.017131   0.001432   0.008936   0.285664
     2  C    0.216803   0.216610  -0.025579  -0.041482  -0.036585
     3  C   -0.019577  -0.019715   0.297741   0.275389   0.012308
     4  F    0.001108   0.000368  -0.034402  -0.030402  -0.001489
     5  F   -0.000778   0.000239  -0.000001   0.000001  -0.035754
     6  F    0.000274  -0.000667  -0.000001  -0.000105  -0.035894
     7  F    9.208940  -0.029667   0.000557   0.000374   0.000314
     8  F   -0.029667   9.209241   0.000578   0.001128   0.000328
     9  F    0.000557   0.000578   9.136128  -0.034031  -0.000001
    10  F    0.000374   0.001128  -0.034031   9.167221  -0.001463
    11  F    0.000314   0.000328  -0.000001  -0.001463   9.157773
 Mulliken charges:
               1
     1  C    1.089748
     2  C    0.580853
     3  C    1.099008
     4  F   -0.344708
     5  F   -0.334983
     6  F   -0.334020
     7  F   -0.361396
     8  F   -0.361313
     9  F   -0.342421
    10  F   -0.345565
    11  F   -0.345202
 Sum of Mulliken charges =  -0.00000
 Mulliken charges with hydrogens summed into heavy atoms:
               1
     1  C    1.089748
     2  C    0.580853
     3  C    1.099008
     4  F   -0.344708
     5  F   -0.334983
     6  F   -0.334020
     7  F   -0.361396
     8  F   -0.361313
     9  F   -0.342421
    10  F   -0.345565
    11  F   -0.345202
 Electronic spatial extent (au):  <R**2>=           1285.2819
 Charge=             -0.0000 electrons
 Dipole moment (field-independent basis, Debye):
    X=             -0.0585    Y=             -0.0449    Z=             -0.0073  Tot=              0.0741
 Quadrupole moment (field-independent basis, Debye-Ang):
   XX=            -56.9144   YY=            -57.2621   ZZ=            -57.2786
   XY=             -0.2305   XZ=              0.0042   YZ=              0.0035
 Traceless Quadrupole moment (field-independent basis, Debye-Ang):
   XX=              0.2373   YY=             -0.1104   ZZ=             -0.1269
   XY=             -0.2305   XZ=              0.0042   YZ=              0.0035
 Octapole moment (field-independent basis, Debye-Ang**2):
  XXX=             -0.2194  YYY=             -0.4657  ZZZ=             -0.1864  XYY=             -0.8174
  XXY=             -1.4204  XXZ=              0.0669  XZZ=              1.0014  YZZ=             -1.3150
  YYZ=              0.1391  XYZ=             -0.1199
 Hexadecapole moment (field-independent basis, Debye-Ang**3):
 XXXX=           -669.8960 YYYY=           -289.1674 ZZZZ=           -227.4335 XXXY=             -1.8363
 XXXZ=             -0.2648 YYYX=             -1.2763 YYYZ=             -0.0884 ZZZX=              0.3396
 ZZZY=              0.0469 XXYY=           -156.5514 XXZZ=           -153.0953 YYZZ=            -88.4013
 XXYZ=              0.1960 YYXZ=             -0.1975 ZZXY=              2.2981
 N-N= 8.064992938862D+02 E-N=-3.779478028703D+03  KE= 9.074115810379D+02
 Calling FoFJK, ICntrl=      2127 FMM=F ISym2X=0 I1Cent= 0 IOpClX= 0 NMat=1 NMatS=1 NMatT=0.
 ***** Axes restored to original set *****
 -------------------------------------------------------------------
 Center     Atomic                   Forces (Hartrees/Bohr)
 Number     Number              X              Y              Z
 -------------------------------------------------------------------
      1        6           0.000331113    0.000035342    0.000402381
      2        6           0.000503409    0.000132963    0.000369581
      3        6          -0.000508507    0.000077911   -0.000307659
      4        9           0.001000028   -0.000406296    0.001098121
      5        9          -0.000649675    0.000786818    0.000040835
      6        9          -0.000617161    0.000177996    0.000403321
      7        9           0.000061422   -0.001279058   -0.000684564
      8        9           0.000381403   -0.000221452   -0.001128216
      9        9          -0.001262450    0.000285157   -0.000360528
     10        9           0.001488521   -0.000141716    0.000408530
     11        9          -0.000728103    0.000552334   -0.000241801
 -------------------------------------------------------------------
 Cartesian Forces:  Max     0.001488521 RMS     0.000644465

 GradGradGradGradGradGradGradGradGradGradGradGradGradGradGradGradGradGrad
 Berny optimization.
 Search for a local minimum.
 Step number   1 out of a maximum of    2
 All quantities printed in internal units (Hartrees-Bohrs-Radians)
 Second derivative matrix not updated -- first step.
 ITU=  0
     Eigenvalues ---    0.00159   0.00282   0.01347   0.03412   0.05274
     Eigenvalues ---    0.05348   0.05353   0.06804   0.08531   0.09219
     Eigenvalues ---    0.12510   0.14490   0.15200   0.15648   0.18238
     Eigenvalues ---    0.21387   0.24635   0.36327   0.64595   1.02022
     Eigenvalues ---    1.20006   1.30634   1.48340   1.61409   1.64903
     Eigenvalues ---    1.67442   1.73926
 Angle between quadratic step and forces=  57.49 degrees.
 Linear search not attempted -- first point.
 B after Tr=    -0.000195    0.001055    0.000276
         Rot=    1.000000   -0.000034   -0.000010   -0.000072 Ang=  -0.01 deg.
 Variable       Old X    -DE/DX   Delta X   Delta X   Delta X     New X
                                 (Linear)    (Quad)   (Total)
    X1       -5.10990   0.00033   0.00000  -0.02162  -0.02194  -5.13183
    Y1        0.89181   0.00004   0.00000  -0.00276  -0.00243   0.88938
    Z1       -0.05567   0.00040   0.00000  -0.01223  -0.01179  -0.06746
    X2       -4.02717   0.00050   0.00000   0.03142   0.03095  -3.99622
    Y2        2.21403   0.00013   0.00000  -0.00831  -0.00799   2.20604
    Z2        2.34643   0.00037   0.00000  -0.03572  -0.03521   2.31122
    X3       -1.51826  -0.00051   0.00000   0.01125   0.01096  -1.50730
    Y3        1.10753   0.00008   0.00000  -0.01453  -0.01392   1.09361
    Z3        3.27204  -0.00031   0.00000   0.02178   0.02216   3.29419
    X4        0.21696   0.00100   0.00000   0.08215   0.08179   0.29875
    Y4        1.35166  -0.00041   0.00000   0.00755   0.00854   1.36020
    Z4        1.51802   0.00110   0.00000   0.09525   0.09561   1.61363
    X5       -5.47279  -0.00065   0.00000  -0.13820  -0.13880  -5.61158
    Y5        2.54860   0.00079   0.00000   0.02252   0.02290   2.57149
    Z5       -1.85462   0.00004   0.00000   0.03332   0.03388  -1.82074
    X6       -7.26179  -0.00062   0.00000   0.02046   0.02031  -7.24147
    Y6       -0.20761   0.00018   0.00000  -0.05276  -0.05278  -0.26039
    Z6        0.46823   0.00040   0.00000   0.05963   0.06003   0.52825
    X7       -3.65519   0.00006   0.00000   0.07149   0.07067  -3.58452
    Y7        4.64268  -0.00128   0.00000  -0.02519  -0.02477   4.61791
    Z7        1.86137  -0.00068   0.00000  -0.08014  -0.07948   1.78189
    X8       -5.68223   0.00038   0.00000   0.01902   0.01861  -5.66363
    Y8        2.01570  -0.00022   0.00000   0.05524   0.05520   2.07089
    Z8        4.21576  -0.00113   0.00000  -0.04234  -0.04181   4.17395
    X9       -0.77100  -0.00126   0.00000  -0.07813  -0.07855  -0.84955
    Y9        2.31246   0.00029   0.00000  -0.01340  -0.01283   2.29963
    Z9        5.30254  -0.00036   0.00000   0.05298   0.05343   5.35597
   X10       -1.81441   0.00149   0.00000   0.02655   0.02661  -1.78780
   Y10       -1.29153  -0.00014   0.00000  -0.01927  -0.01874  -1.31026
   Z10        3.82799   0.00041   0.00000   0.00984   0.01006   3.83805
   X11       -3.53887  -0.00073   0.00000  -0.02052  -0.02062  -3.55949
   Y11       -0.84077   0.00055   0.00000   0.04621   0.04683  -0.79394
   Z11       -0.89957  -0.00024   0.00000  -0.10716  -0.10687  -1.00643
         Item               Value     Threshold  Converged?
 Maximum Force            0.001489     0.000450     NO 
 RMS     Force            0.000644     0.000300     NO 
 Maximum Displacement     0.138798     0.001800     NO 
 RMS     Displacement     0.051871     0.001200     NO 
 Predicted change in Energy=-2.964884D-04
 GradGradGradGradGradGradGradGradGradGradGradGradGradGradGradGradGradGrad

 1\1\GINC-MU01\Force\RHF\6-31G(d)\C3F8\LBL8\15-Sep-2025\0\\# hf/6-31G(d
 ) force\\Force calculation\\0,1\C,-2.70404025,0.47192527,-0.02945998\C
 ,-2.13108596,1.17161214,1.241678\C,-0.80343122,0.58607907,1.73148645\F
 ,0.11481105,0.71526708,0.80330006\F,-2.89607369,1.34865873,-0.98142055
 \F,-3.84277188,-0.10986331,0.24777602\F,-1.93424568,2.45679941,0.98499
 371\F,-3.00690859,1.06666061,2.23088459\F,-0.40799611,1.22370128,2.805
 98248\F,-0.96014513,-0.68344592,2.0256875\F,-1.87268949,-0.44491644,-0
 .47602936\\Version=ES64L-G16RevA.03\State=1-A\HF=-909.1198845\RMSD=5.4
 13e-09\RMSF=6.445e-04\Dipole=-0.0068542,-0.0129397,-0.0252143\Quadrupo
 le=0.1677765,-0.1041302,-0.0636462,-0.0848914,0.1327276,-0.0800895\PG=
 C01 [X(C3F8)]\\@


 BLACK HOLES SUCK.
 Job cpu time:       0 days  0 hours  0 minutes  7.6 seconds.
 Elapsed time:       0 days  0 hours  0 minutes  7.6 seconds.
 File lengths (MBytes):  RWF=     28 Int=      0 D2E=      0 Chk=      4 Scr=      2
 Normal termination of Gaussian 16 at Mon Sep 15 21:50:04 2025.
